 Entering Gaussian System, Link 0=g09
 Input=10.com
 Output=10.log
 Initial command:
 /usr/local/g09/l1.exe "/home/student/scr/Gau-1233.inp" -scrdir="/home/student/scr/"
 Entering Link 1 = /usr/local/g09/l1.exe PID=      1234.
  
 Copyright (c) 1988,1990,1992,1993,1995,1998,2003,2009,2013,
            Gaussian, Inc.  All Rights Reserved.
  
 This is part of the Gaussian(R) 09 program.  It is based on
 the Gaussian(R) 03 system (copyright 2003, Gaussian, Inc.),
 the Gaussian(R) 98 system (copyright 1998, Gaussian, Inc.),
 the Gaussian(R) 94 system (copyright 1995, Gaussian, Inc.),
 the Gaussian 92(TM) system (copyright 1992, Gaussian, Inc.),
 the Gaussian 90(TM) system (copyright 1990, Gaussian, Inc.),
 the Gaussian 88(TM) system (copyright 1988, Gaussian, Inc.),
 the Gaussian 86(TM) system (copyright 1986, Carnegie Mellon
 University), and the Gaussian 82(TM) system (copyright 1983,
 Carnegie Mellon University). Gaussian is a federally registered
 trademark of Gaussian, Inc.
  
 This software contains proprietary and confidential information,
 including trade secrets, belonging to Gaussian, Inc.
  
 This software is provided under written license and may be
 used, copied, transmitted, or stored only in accord with that
 written license.
  
 The following legend is applicable only to US Government
 contracts under FAR:
  
                    RESTRICTED RIGHTS LEGEND
  
 Use, reproduction and disclosure by the US Government is
 subject to restrictions as set forth in subparagraphs (a)
 and (c) of the Commercial Computer Software - Restricted
 Rights clause in FAR 52.227-19.
  
 Gaussian, Inc.
 340 Quinnipiac St., Bldg. 40, Wallingford CT 06492
  
  
 ---------------------------------------------------------------
 Warning -- This program may not be used in any manner that
 competes with the business of Gaussian, Inc. or will provide
 assistance to any competitor of Gaussian, Inc.  The licensee
 of this program is prohibited from giving any competitor of
 Gaussian, Inc. access to this program.  By using this program,
 the user acknowledges that Gaussian, Inc. is engaged in the
 business of creating and licensing software in the field of
 computational chemistry and represents and warrants to the
 licensee that it is not a competitor of Gaussian, Inc. and that
 it will not use this program in any manner prohibited above.
 ---------------------------------------------------------------
  

 Cite this work as:
 Gaussian 09, Revision D.01,
 M. J. Frisch, G. W. Trucks, H. B. Schlegel, G. E. Scuseria, 
 M. A. Robb, J. R. Cheeseman, G. Scalmani, V. Barone, B. Mennucci, 
 G. A. Petersson, H. Nakatsuji, M. Caricato, X. Li, H. P. Hratchian, 
 A. F. Izmaylov, J. Bloino, G. Zheng, J. L. Sonnenberg, M. Hada, 
 M. Ehara, K. Toyota, R. Fukuda, J. Hasegawa, M. Ishida, T. Nakajima, 
 Y. Honda, O. Kitao, H. Nakai, T. Vreven, J. A. Montgomery, Jr., 
 J. E. Peralta, F. Ogliaro, M. Bearpark, J. J. Heyd, E. Brothers, 
 K. N. Kudin, V. N. Staroverov, T. Keith, R. Kobayashi, J. Normand, 
 K. Raghavachari, A. Rendell, J. C. Burant, S. S. Iyengar, J. Tomasi, 
 M. Cossi, N. Rega, J. M. Millam, M. Klene, J. E. Knox, J. B. Cross, 
 V. Bakken, C. Adamo, J. Jaramillo, R. Gomperts, R. E. Stratmann, 
 O. Yazyev, A. J. Austin, R. Cammi, C. Pomelli, J. W. Ochterski, 
 R. L. Martin, K. Morokuma, V. G. Zakrzewski, G. A. Voth, 
 P. Salvador, J. J. Dannenberg, S. Dapprich, A. D. Daniels, 
 O. Farkas, J. B. Foresman, J. V. Ortiz, J. Cioslowski, 
 and D. J. Fox, Gaussian, Inc., Wallingford CT, 2013.
 
 ******************************************
 Gaussian 09:  ES64L-G09RevD.01 24-Apr-2013
                17-Jan-2017 
 ******************************************
 %nprocshared=4
 Will use up to    4 processors via shared memory.
 %mem=20GB
 %chk=10.chk
 -------------------------
 # opt freq b3lyp/6-31g(d)
 -------------------------
 1/14=-1,18=20,19=15,26=3,38=1/1,3;
 2/9=110,12=2,17=6,18=5,40=1/2;
 3/5=1,6=6,7=1,11=2,16=1,25=1,30=1,71=1,74=-5/1,2,3;
 4//1;
 5/5=2,38=5/2;
 6/7=2,8=2,9=2,10=2,28=1/1;
 7//1,2,3,16;
 1/14=-1,18=20,19=15,26=3/3(2);
 2/9=110/2;
 99//99;
 2/9=110/2;
 3/5=1,6=6,7=1,11=2,16=1,25=1,30=1,71=1,74=-5/1,2,3;
 4/5=5,16=3,69=1/1;
 5/5=2,38=5/2;
 7//1,2,3,16;
 1/14=-1,18=20,19=15,26=3/3(-5);
 2/9=110/2;
 6/7=2,8=2,9=2,10=2,19=2,28=1/1;
 99/9=1/99;
 -------------------
 Title Card Required
 -------------------
 Symbolic Z-matrix:
 Charge =  0 Multiplicity = 1
 C                    -2.88469  -1.21334  -0.51243 
 C                    -1.73789  -1.21539   0.29304 
 C                    -1.16472  -0.00278   0.69919 
 C                    -1.73834   1.21189   0.29988 
 C                    -2.88514   1.21395  -0.50559 
 C                    -3.45831   0.00133  -0.91174 
 H                    -1.29991  -2.14282   0.59792 
 H                    -3.32312   2.14138  -0.81047 
 O                     0.00548  -0.00487   1.52109 
 C                     1.17045  -0.00232   0.69179 
 C                     1.74151  -1.21471   0.28201 
 C                     1.74106   1.21258   0.28885 
 C                     2.88318  -1.21221  -0.5307 
 H                     1.30584  -2.14231   0.58966 
 C                     2.88273   1.21508  -0.52387 
 C                     3.45379   0.00269  -0.93365 
 H                     3.3184    2.14268  -0.83152 
 Br                   -0.95715   2.8646    0.85342 
 Br                    0.96275   2.86497   0.84735 
 Br                   -5.02131   0.00413  -2.00952 
 Br                    5.00979   0.0061   -2.04132 
 Br                    3.66149  -2.8646   -1.0892 
 Br                   -3.66588  -2.86604  -1.06598 
 

 GradGradGradGradGradGradGradGradGradGradGradGradGradGradGradGradGradGrad
 Berny optimization.
 Initialization pass.
                           ----------------------------
                           !    Initial Parameters    !
                           ! (Angstroms and Degrees)  !
 --------------------------                            --------------------------
 ! Name  Definition              Value          Derivative Info.                !
 --------------------------------------------------------------------------------
 ! R1    R(1,2)                  1.4014         estimate D2E/DX2                !
 ! R2    R(1,6)                  1.4014         estimate D2E/DX2                !
 ! R3    R(1,23)                 1.91           estimate D2E/DX2                !
 ! R4    R(2,3)                  1.4014         estimate D2E/DX2                !
 ! R5    R(2,7)                  1.07           estimate D2E/DX2                !
 ! R6    R(3,4)                  1.4014         estimate D2E/DX2                !
 ! R7    R(3,9)                  1.43           estimate D2E/DX2                !
 ! R8    R(4,5)                  1.4014         estimate D2E/DX2                !
 ! R9    R(4,18)                 1.91           estimate D2E/DX2                !
 ! R10   R(5,6)                  1.4014         estimate D2E/DX2                !
 ! R11   R(5,8)                  1.07           estimate D2E/DX2                !
 ! R12   R(6,20)                 1.91           estimate D2E/DX2                !
 ! R13   R(9,10)                 1.43           estimate D2E/DX2                !
 ! R14   R(10,11)                1.4014         estimate D2E/DX2                !
 ! R15   R(10,12)                1.4014         estimate D2E/DX2                !
 ! R16   R(11,13)                1.4014         estimate D2E/DX2                !
 ! R17   R(11,14)                1.07           estimate D2E/DX2                !
 ! R18   R(12,15)                1.4014         estimate D2E/DX2                !
 ! R19   R(12,19)                1.91           estimate D2E/DX2                !
 ! R20   R(13,16)                1.4014         estimate D2E/DX2                !
 ! R21   R(13,22)                1.91           estimate D2E/DX2                !
 ! R22   R(15,16)                1.4014         estimate D2E/DX2                !
 ! R23   R(15,17)                1.07           estimate D2E/DX2                !
 ! R24   R(16,21)                1.91           estimate D2E/DX2                !
 ! R25   R(18,19)                1.9199         estimate D2E/DX2                !
 ! A1    A(2,1,6)              120.0            estimate D2E/DX2                !
 ! A2    A(2,1,23)             120.0            estimate D2E/DX2                !
 ! A3    A(6,1,23)             120.0            estimate D2E/DX2                !
 ! A4    A(1,2,3)              120.0            estimate D2E/DX2                !
 ! A5    A(1,2,7)              120.0            estimate D2E/DX2                !
 ! A6    A(3,2,7)              120.0            estimate D2E/DX2                !
 ! A7    A(2,3,4)              120.0            estimate D2E/DX2                !
 ! A8    A(2,3,9)              120.0            estimate D2E/DX2                !
 ! A9    A(4,3,9)              120.0            estimate D2E/DX2                !
 ! A10   A(3,4,5)              120.0            estimate D2E/DX2                !
 ! A11   A(3,4,18)             120.0            estimate D2E/DX2                !
 ! A12   A(5,4,18)             120.0            estimate D2E/DX2                !
 ! A13   A(4,5,6)              120.0            estimate D2E/DX2                !
 ! A14   A(4,5,8)              120.0            estimate D2E/DX2                !
 ! A15   A(6,5,8)              120.0            estimate D2E/DX2                !
 ! A16   A(1,6,5)              120.0            estimate D2E/DX2                !
 ! A17   A(1,6,20)             120.0            estimate D2E/DX2                !
 ! A18   A(5,6,20)             120.0            estimate D2E/DX2                !
 ! A19   A(3,9,10)             109.4712         estimate D2E/DX2                !
 ! A20   A(9,10,11)            120.0            estimate D2E/DX2                !
 ! A21   A(9,10,12)            120.0            estimate D2E/DX2                !
 ! A22   A(11,10,12)           120.0            estimate D2E/DX2                !
 ! A23   A(10,11,13)           120.0            estimate D2E/DX2                !
 ! A24   A(10,11,14)           120.0            estimate D2E/DX2                !
 ! A25   A(13,11,14)           120.0            estimate D2E/DX2                !
 ! A26   A(10,12,15)           120.0            estimate D2E/DX2                !
 ! A27   A(10,12,19)           120.0            estimate D2E/DX2                !
 ! A28   A(15,12,19)           120.0            estimate D2E/DX2                !
 ! A29   A(11,13,16)           120.0            estimate D2E/DX2                !
 ! A30   A(11,13,22)           120.0            estimate D2E/DX2                !
 ! A31   A(16,13,22)           120.0            estimate D2E/DX2                !
 ! A32   A(12,15,16)           120.0            estimate D2E/DX2                !
 ! A33   A(12,15,17)           120.0            estimate D2E/DX2                !
 ! A34   A(16,15,17)           120.0            estimate D2E/DX2                !
 ! A35   A(13,16,15)           120.0            estimate D2E/DX2                !
 ! A36   A(13,16,21)           120.0            estimate D2E/DX2                !
 ! A37   A(15,16,21)           120.0            estimate D2E/DX2                !
 ! A38   A(4,18,19)            114.095          estimate D2E/DX2                !
 ! A39   A(12,19,18)           114.0947         estimate D2E/DX2                !
 ! D1    D(6,1,2,3)              0.0            estimate D2E/DX2                !
 ! D2    D(6,1,2,7)            180.0            estimate D2E/DX2                !
 ! D3    D(23,1,2,3)          -179.9998         estimate D2E/DX2                !
 ! D4    D(23,1,2,7)             0.0002         estimate D2E/DX2                !
 ! D5    D(2,1,6,5)              0.0001         estimate D2E/DX2                !
 ! D6    D(2,1,6,20)          -179.9999         estimate D2E/DX2                !
 ! D7    D(23,1,6,5)           179.9999         estimate D2E/DX2                !
 ! D8    D(23,1,6,20)           -0.0001         estimate D2E/DX2                !
 ! D9    D(1,2,3,4)             -0.0001         estimate D2E/DX2                !
 ! D10   D(1,2,3,9)            179.9999         estimate D2E/DX2                !
 ! D11   D(7,2,3,4)            179.9999         estimate D2E/DX2                !
 ! D12   D(7,2,3,9)             -0.0001         estimate D2E/DX2                !
 ! D13   D(2,3,4,5)              0.0002         estimate D2E/DX2                !
 ! D14   D(2,3,4,18)          -179.9998         estimate D2E/DX2                !
 ! D15   D(9,3,4,5)           -179.9998         estimate D2E/DX2                !
 ! D16   D(9,3,4,18)             0.0002         estimate D2E/DX2                !
 ! D17   D(2,3,9,10)            90.0            estimate D2E/DX2                !
 ! D18   D(4,3,9,10)           -90.0            estimate D2E/DX2                !
 ! D19   D(3,4,5,6)             -0.0001         estimate D2E/DX2                !
 ! D20   D(3,4,5,8)            179.9998         estimate D2E/DX2                !
 ! D21   D(18,4,5,6)           179.9999         estimate D2E/DX2                !
 ! D22   D(18,4,5,8)            -0.0002         estimate D2E/DX2                !
 ! D23   D(3,4,18,19)           39.2311         estimate D2E/DX2                !
 ! D24   D(5,4,18,19)         -140.7689         estimate D2E/DX2                !
 ! D25   D(4,5,6,1)             -0.0001         estimate D2E/DX2                !
 ! D26   D(4,5,6,20)           180.0            estimate D2E/DX2                !
 ! D27   D(8,5,6,1)           -179.9999         estimate D2E/DX2                !
 ! D28   D(8,5,6,20)             0.0001         estimate D2E/DX2                !
 ! D29   D(3,9,10,11)          -90.0            estimate D2E/DX2                !
 ! D30   D(3,9,10,12)           90.0            estimate D2E/DX2                !
 ! D31   D(9,10,11,13)        -180.0            estimate D2E/DX2                !
 ! D32   D(9,10,11,14)           0.0001         estimate D2E/DX2                !
 ! D33   D(12,10,11,13)          0.0            estimate D2E/DX2                !
 ! D34   D(12,10,11,14)       -179.9999         estimate D2E/DX2                !
 ! D35   D(9,10,12,15)        -180.0            estimate D2E/DX2                !
 ! D36   D(9,10,12,19)           0.0001         estimate D2E/DX2                !
 ! D37   D(11,10,12,15)          0.0            estimate D2E/DX2                !
 ! D38   D(11,10,12,19)       -179.9999         estimate D2E/DX2                !
 ! D39   D(10,11,13,16)         -0.0001         estimate D2E/DX2                !
 ! D40   D(10,11,13,22)       -179.9999         estimate D2E/DX2                !
 ! D41   D(14,11,13,16)        179.9998         estimate D2E/DX2                !
 ! D42   D(14,11,13,22)          0.0001         estimate D2E/DX2                !
 ! D43   D(10,12,15,16)          0.0            estimate D2E/DX2                !
 ! D44   D(10,12,15,17)        179.9999         estimate D2E/DX2                !
 ! D45   D(19,12,15,16)        179.9999         estimate D2E/DX2                !
 ! D46   D(19,12,15,17)         -0.0002         estimate D2E/DX2                !
 ! D47   D(10,12,19,18)        -39.2319         estimate D2E/DX2                !
 ! D48   D(15,12,19,18)        140.7682         estimate D2E/DX2                !
 ! D49   D(11,13,16,15)          0.0002         estimate D2E/DX2                !
 ! D50   D(11,13,16,21)       -179.9999         estimate D2E/DX2                !
 ! D51   D(22,13,16,15)        180.0            estimate D2E/DX2                !
 ! D52   D(22,13,16,21)         -0.0001         estimate D2E/DX2                !
 ! D53   D(12,15,16,13)         -0.0001         estimate D2E/DX2                !
 ! D54   D(12,15,16,21)        180.0            estimate D2E/DX2                !
 ! D55   D(17,15,16,13)        180.0            estimate D2E/DX2                !
 ! D56   D(17,15,16,21)          0.0001         estimate D2E/DX2                !
 ! D57   D(4,18,19,12)           0.0004         estimate D2E/DX2                !
 --------------------------------------------------------------------------------
 Trust Radius=3.00D-01 FncErr=1.00D-07 GrdErr=1.00D-06
 Number of steps in this run=    131 maximum allowed number of steps=    138.
 GradGradGradGradGradGradGradGradGradGradGradGradGradGradGradGradGradGrad

                          Input orientation:                          
 ---------------------------------------------------------------------
 Center     Atomic      Atomic             Coordinates (Angstroms)
 Number     Number       Type             X           Y           Z
 ---------------------------------------------------------------------
      1          6           0       -2.884687   -1.213337   -0.512426
      2          6           0       -1.737889   -1.215392    0.293037
      3          6           0       -1.164717   -0.002776    0.699189
      4          6           0       -1.738343    1.211895    0.299876
      5          6           0       -2.885142    1.213950   -0.505587
      6          6           0       -3.458315    0.001334   -0.911737
      7          1           0       -1.299912   -2.142820    0.597920
      8          1           0       -3.323119    2.141378   -0.810469
      9          8           0        0.005483   -0.004873    1.521093
     10          6           0        1.170451   -0.002318    0.691789
     11          6           0        1.741512   -1.214710    0.282012
     12          6           0        1.741058    1.212576    0.288850
     13          6           0        2.883181   -1.212207   -0.530705
     14          1           0        1.305840   -2.142309    0.589664
     15          6           0        2.882726    1.215080   -0.523867
     16          6           0        3.453787    0.002688   -0.933646
     17          1           0        3.318397    2.142679   -0.831521
     18         35           0       -0.957151    2.864596    0.853424
     19         35           0        0.962748    2.864972    0.847349
     20         35           0       -5.021314    0.004135   -2.009519
     21         35           0        5.009792    0.006100   -2.041318
     22         35           0        3.661492   -2.864603   -1.089202
     23         35           0       -3.665879   -2.866038   -1.065976
 ---------------------------------------------------------------------
                    Distance matrix (angstroms):
                    1          2          3          4          5
     1  C    0.000000
     2  C    1.401400   0.000000
     3  C    2.427296   1.401400   0.000000
     4  C    2.802800   2.427296   1.401400   0.000000
     5  C    2.427296   2.802800   2.427296   1.401400   0.000000
     6  C    1.401400   2.427296   2.802800   2.427296   1.401400
     7  H    2.146700   1.070000   2.146700   3.396345   3.872800
     8  H    3.396345   3.872800   3.396345   2.146700   1.070000
     9  O    3.734792   2.452106   1.430000   2.452106   3.734792
    10  C    4.400096   3.176317   2.335180   3.176317   4.400097
    11  C    4.693917   3.479419   3.176317   4.242419   5.284376
    12  C    5.284375   4.242419   3.176317   3.479419   4.693917
    13  C    5.767897   4.693916   4.400096   5.284374   6.257828
    14  H    4.431491   3.195536   3.270054   4.538911   5.479816
    15  C    6.257827   5.284374   4.400095   4.693915   5.767897
    16  C    6.467797   5.471925   4.898649   5.471925   6.467798
    17  H    7.059952   6.173110   5.200420   5.264697   6.281135
    18  Br   4.712800   4.191645   2.879010   1.910000   2.879010
    19  Br   5.769259   4.924436   3.573799   3.213765   4.400292
    20  Br   2.879010   4.191645   4.712800   4.191645   2.879010
    21  Br   8.133101   7.243787   6.755370   7.243787   8.133102
    22  Br   6.775826   5.812383   5.889032   6.906923   7.735219
    23  Br   1.910000   2.879010   4.191645   4.712800   4.191645
                    6          7          8          9         10
     6  C    0.000000
     7  H    3.396345   0.000000
     8  H    2.146700   4.942800   0.000000
     9  O    4.232800   2.669667   4.595886   0.000000
    10  C    4.898651   3.270054   5.200422   1.430000   0.000000
    11  C    5.471928   3.195535   6.173113   2.452106   1.401400
    12  C    5.471928   4.538910   5.264700   2.452106   1.401400
    13  C    6.467800   4.431490   7.059955   3.734792   2.427296
    14  H    5.435677   2.605766   6.460465   2.669667   2.146700
    15  C    6.467799   5.479814   6.281138   3.734792   2.427296
    16  C    6.912136   5.435674   7.107434   4.232800   2.802800
    17  H    7.107433   6.460462   6.641550   4.595886   3.396345
    18  Br   4.191645   5.025632   2.981509   3.099403   3.573796
    19  Br   5.553432   5.500893   4.651946   3.099403   2.879010
    20  Br   1.910000   5.025632   2.981509   6.142800   6.755373
    21  Br   8.543114   7.169086   8.689753   6.142800   4.712800
    22  Br   7.677026   5.289885   8.597809   5.325232   4.191645
    23  Br   2.879010   2.981509   5.025632   5.325232   5.889034
                   11         12         13         14         15
    11  C    0.000000
    12  C    2.427296   0.000000
    13  C    1.401400   2.802800   0.000000
    14  H    1.070000   3.396345   2.146700   0.000000
    15  C    2.802800   1.401400   2.427296   3.872800   0.000000
    16  C    2.427296   2.427296   1.401400   3.396345   1.401400
    17  H    3.872800   2.146700   3.396345   4.942800   1.070000
    18  Br   4.924432   3.213759   5.769253   5.500891   4.400283
    19  Br   4.191645   1.910000   4.712800   5.025632   2.879010
    20  Br   7.243791   7.243791   8.133106   7.169090   8.133105
    21  Br   4.191645   4.191645   2.879010   5.025632   2.879010
    22  Br   2.879010   4.712800   1.910000   2.981509   4.191645
    23  Br   5.812386   6.906926   6.775829   5.289888   7.735221
                   16         17         18         19         20
    16  C    0.000000
    17  H    2.146700   0.000000
    18  Br   5.553423   4.651936   0.000000
    19  Br   4.191645   2.981509   1.919908   0.000000
    20  Br   8.543116   8.689754   5.735513   7.221848   0.000000
    21  Br   1.910000   2.981509   7.221837   5.735513  10.031156
    22  Br   2.879010   5.025632   7.611135   6.622800   9.190634
    23  Br   7.677027   8.597809   6.622800   7.611142   3.311400
                   21         22         23
    21  Br   0.000000
    22  Br   3.311400   0.000000
    23  Br   9.190633   7.327408   0.000000
 Stoichiometry    C12H4Br6O
 Framework group  C1[X(C12H4Br6O)]
 Deg. of freedom    63
 Full point group                 C1      NOp   1
 Largest Abelian subgroup         C1      NOp   1
 Largest concise Abelian subgroup C1      NOp   1
                         Standard orientation:                         
 ---------------------------------------------------------------------
 Center     Atomic      Atomic             Coordinates (Angstroms)
 Number     Number       Type             X           Y           Z
 ---------------------------------------------------------------------
      1          6           0        2.883949   -1.133424   -0.433967
      2          6           0        1.739709   -0.847960   -1.191033
      3          6           0        1.167590    0.430373   -1.141370
      4          6           0        1.739708    1.423241   -0.334639
      5          6           0        2.883948    1.137778    0.422426
      6          6           0        3.456069   -0.140554    0.372762
      7          1           0        1.302883   -1.606038   -1.806988
      8          1           0        3.320775    1.895856    1.038381
      9          8           0        0.000000    0.721663   -1.913888
     10          6           0       -1.167590    0.430372   -1.141372
     11          6           0       -1.739709   -0.847961   -1.191036
     12          6           0       -1.739710    1.423241   -0.334642
     13          6           0       -2.883949   -1.133425   -0.433970
     14          1           0       -1.302883   -1.606038   -1.806991
     15          6           0       -2.883949    1.137776    0.422425
     16          6           0       -3.456068   -0.140557    0.372761
     17          1           0       -3.320775    1.895853    1.038382
     18         35           0        0.959950    3.165508   -0.266947
     19         35           0       -0.959958    3.165511   -0.266956
     20         35           0        5.015580   -0.529619    1.404582
     21         35           0       -5.015576   -0.529624    1.404585
     22         35           0       -3.663702   -2.875695   -0.501656
     23         35           0        3.663706   -2.875691   -0.501657
 ---------------------------------------------------------------------
 Rotational constants (GHZ):      0.1406127      0.0662042      0.0495046
 Standard basis: 6-31G(d) (6D, 7F)
 There are   383 symmetry adapted cartesian basis functions of A   symmetry.
 There are   383 symmetry adapted basis functions of A   symmetry.
   383 basis functions,   878 primitive gaussians,   383 cartesian basis functions
   147 alpha electrons      147 beta electrons
       nuclear repulsion energy      4659.0447029406 Hartrees.
 NAtoms=   23 NActive=   23 NUniq=   23 SFac= 1.00D+00 NAtFMM=   60 NAOKFM=F Big=F
 Integral buffers will be    131072 words long.
 Raffenetti 2 integral format.
 Two-electron integral symmetry is turned on.
 One-electron integrals computed using PRISM.
 NBasis=   383 RedAO= T EigKep=  3.66D-04  NBF=   383
 NBsUse=   383 1.00D-06 EigRej= -1.00D+00 NBFU=   383
 ExpMin= 1.43D-01 ExpMax= 5.74D+05 ExpMxC= 5.74D+03 IAcc=2 IRadAn=         4 AccDes= 0.00D+00
 Harris functional with IExCor=  402 and IRadAn=       4 diagonalized for initial guess.
 HarFok:  IExCor=  402 AccDes= 0.00D+00 IRadAn=         4 IDoV= 1 UseB2=F ITyADJ=14
 ICtDFT=  3500011 ScaDFX=  1.000000  1.000000  1.000000  1.000000
 FoFCou: FMM=F IPFlag=           0 FMFlag=      100000 FMFlg1=           0
         NFxFlg=           0 DoJE=T BraDBF=F KetDBF=T FulRan=T
         wScrn=  0.000000 ICntrl=     500 IOpCl=  0 I1Cent=   200000004 NGrid=           0
         NMat0=    1 NMatS0=      1 NMatT0=    0 NMatD0=    1 NMtDS0=    0 NMtDT0=    0
 Petite list used in FoFCou.
 Requested convergence on RMS density matrix=1.00D-08 within 128 cycles.
 Requested convergence on MAX density matrix=1.00D-06.
 Requested convergence on             energy=1.00D-06.
 No special actions if energy rises.
 Integral accuracy reduced to 1.0D-05 until final iterations.
 EnCoef did     3 forward-backward iterations
 Initial convergence to 1.0D-05 achieved.  Increase integral accuracy.
 SCF Done:  E(RB3LYP) =  -15964.7188126     A.U. after   18 cycles
            NFock= 18  Conv=0.81D-08     -V/T= 2.0062

 **********************************************************************

            Population analysis using the SCF density.

 **********************************************************************

 Orbital symmetries:
       Occupied  (A) (A) (A) (A) (A) (A) (A) (A) (A) (A) (A) (A)
                 (A) (A) (A) (A) (A) (A) (A) (A) (A) (A) (A) (A)
                 (A) (A) (A) (A) (A) (A) (A) (A) (A) (A) (A) (A)
                 (A) (A) (A) (A) (A) (A) (A) (A) (A) (A) (A) (A)
                 (A) (A) (A) (A) (A) (A) (A) (A) (A) (A) (A) (A)
                 (A) (A) (A) (A) (A) (A) (A) (A) (A) (A) (A) (A)
                 (A) (A) (A) (A) (A) (A) (A) (A) (A) (A) (A) (A)
                 (A) (A) (A) (A) (A) (A) (A) (A) (A) (A) (A) (A)
                 (A) (A) (A) (A) (A) (A) (A) (A) (A) (A) (A) (A)
                 (A) (A) (A) (A) (A) (A) (A) (A) (A) (A) (A) (A)
                 (A) (A) (A) (A) (A) (A) (A) (A) (A) (A) (A) (A)
                 (A) (A) (A) (A) (A) (A) (A) (A) (A) (A) (A) (A)
                 (A) (A) (A)
       Virtual   (A) (A) (A) (A) (A) (A) (A) (A) (A) (A) (A) (A)
                 (A) (A) (A) (A) (A) (A) (A) (A) (A) (A) (A) (A)
                 (A) (A) (A) (A) (A) (A) (A) (A) (A) (A) (A) (A)
                 (A) (A) (A) (A) (A) (A) (A) (A) (A) (A) (A) (A)
                 (A) (A) (A) (A) (A) (A) (A) (A) (A) (A) (A) (A)
                 (A) (A) (A) (A) (A) (A) (A) (A) (A) (A) (A) (A)
                 (A) (A) (A) (A) (A) (A) (A) (A) (A) (A) (A) (A)
                 (A) (A) (A) (A) (A) (A) (A) (A) (A) (A) (A) (A)
                 (A) (A) (A) (A) (A) (A) (A) (A) (A) (A) (A) (A)
                 (A) (A) (A) (A) (A) (A) (A) (A) (A) (A) (A) (A)
                 (A) (A) (A) (A) (A) (A) (A) (A) (A) (A) (A) (A)
                 (A) (A) (A) (A) (A) (A) (A) (A) (A) (A) (A) (A)
                 (A) (A) (A) (A) (A) (A) (A) (A) (A) (A) (A) (A)
                 (A) (A) (A) (A) (A) (A) (A) (A) (A) (A) (A) (A)
                 (A) (A) (A) (A) (A) (A) (A) (A) (A) (A) (A) (A)
                 (A) (A) (A) (A) (A) (A) (A) (A) (A) (A) (A) (A)
                 (A) (A) (A) (A) (A) (A) (A) (A) (A) (A) (A) (A)
                 (A) (A) (A) (A) (A) (A) (A) (A) (A) (A) (A) (A)
                 (A) (A) (A) (A) (A) (A) (A) (A) (A) (A) (A) (A)
                 (A) (A) (A) (A) (A) (A) (A) (A)
 The electronic state is 1-A.
 Alpha  occ. eigenvalues -- -483.02222-483.02181-482.92133-482.92132-482.91640
 Alpha  occ. eigenvalues -- -482.91640 -61.98410 -61.98021 -61.88285 -61.88284
 Alpha  occ. eigenvalues --  -61.87786 -61.87785 -56.50289 -56.50070 -56.49967
 Alpha  occ. eigenvalues --  -56.49923 -56.49694 -56.49658 -56.40405 -56.40403
 Alpha  occ. eigenvalues --  -56.39971 -56.39970 -56.39967 -56.39967 -56.39907
 Alpha  occ. eigenvalues --  -56.39906 -56.39486 -56.39485 -56.39483 -56.39482
 Alpha  occ. eigenvalues --  -19.19894 -10.27182 -10.27181 -10.26880 -10.26880
 Alpha  occ. eigenvalues --  -10.26425 -10.26424 -10.22637 -10.22637 -10.22098
 Alpha  occ. eigenvalues --  -10.22098 -10.20158 -10.20158  -8.69666  -8.69572
 Alpha  occ. eigenvalues --   -8.59376  -8.59375  -8.58896  -8.58896  -6.65071
 Alpha  occ. eigenvalues --   -6.64955  -6.63977  -6.63969  -6.63204  -6.63196
 Alpha  occ. eigenvalues --   -6.54802  -6.54802  -6.54303  -6.54303  -6.53484
 Alpha  occ. eigenvalues --   -6.53484  -6.53416  -6.53416  -6.53013  -6.53013
 Alpha  occ. eigenvalues --   -6.52953  -6.52953  -2.77263  -2.76646  -2.76302
 Alpha  occ. eigenvalues --   -2.76231  -2.76007  -2.75665  -2.75033  -2.74996
 Alpha  occ. eigenvalues --   -2.74985  -2.74898  -2.66364  -2.66364  -2.66000
 Alpha  occ. eigenvalues --   -2.66000  -2.65948  -2.65948  -2.65871  -2.65871
 Alpha  occ. eigenvalues --   -2.65510  -2.65510  -2.65464  -2.65464  -2.64894
 Alpha  occ. eigenvalues --   -2.64894  -2.64893  -2.64893  -2.64435  -2.64435
 Alpha  occ. eigenvalues --   -2.64434  -2.64434  -1.07271  -1.01686  -0.90017
 Alpha  occ. eigenvalues --   -0.89152  -0.83863  -0.81130  -0.80941  -0.80282
 Alpha  occ. eigenvalues --   -0.78676  -0.75026  -0.74616  -0.71438  -0.71425
 Alpha  occ. eigenvalues --   -0.64384  -0.63719  -0.60634  -0.60280  -0.53952
 Alpha  occ. eigenvalues --   -0.53389  -0.52333  -0.49380  -0.49336  -0.47738
 Alpha  occ. eigenvalues --   -0.47366  -0.46748  -0.45904  -0.45620  -0.44359
 Alpha  occ. eigenvalues --   -0.41568  -0.40957  -0.40181  -0.40033  -0.38619
 Alpha  occ. eigenvalues --   -0.38424  -0.37142  -0.34075  -0.32200  -0.32008
 Alpha  occ. eigenvalues --   -0.31700  -0.31576  -0.31176  -0.30753  -0.29704
 Alpha  occ. eigenvalues --   -0.27375  -0.27346  -0.26473  -0.25763  -0.24950
 Alpha  occ. eigenvalues --   -0.24064  -0.12791
 Alpha virt. eigenvalues --   -0.09167  -0.04332  -0.03723  -0.02979  -0.02398
 Alpha virt. eigenvalues --   -0.02310  -0.01113   0.02330   0.03011   0.04055
 Alpha virt. eigenvalues --    0.09470   0.10928   0.12812   0.13201   0.14262
 Alpha virt. eigenvalues --    0.14731   0.14995   0.17905   0.20774   0.21098
 Alpha virt. eigenvalues --    0.21392   0.22310   0.23490   0.25151   0.25309
 Alpha virt. eigenvalues --    0.27056   0.27700   0.28322   0.29757   0.30588
 Alpha virt. eigenvalues --    0.30918   0.31175   0.31709   0.33736   0.34068
 Alpha virt. eigenvalues --    0.36206   0.39218   0.39446   0.40817   0.41509
 Alpha virt. eigenvalues --    0.42257   0.42605   0.42665   0.42744   0.42771
 Alpha virt. eigenvalues --    0.43066   0.43378   0.44387   0.44478   0.44488
 Alpha virt. eigenvalues --    0.45137   0.45276   0.46034   0.46037   0.46547
 Alpha virt. eigenvalues --    0.46690   0.47182   0.47219   0.47563   0.47982
 Alpha virt. eigenvalues --    0.48634   0.49300   0.50650   0.50995   0.51005
 Alpha virt. eigenvalues --    0.52158   0.52621   0.52631   0.53098   0.53114
 Alpha virt. eigenvalues --    0.55185   0.55311   0.55944   0.56574   0.57433
 Alpha virt. eigenvalues --    0.59764   0.60513   0.61136   0.61229   0.62131
 Alpha virt. eigenvalues --    0.65657   0.65687   0.67360   0.67845   0.70347
 Alpha virt. eigenvalues --    0.71090   0.71909   0.72442   0.72465   0.73220
 Alpha virt. eigenvalues --    0.74638   0.75212   0.75365   0.76823   0.77343
 Alpha virt. eigenvalues --    0.77801   0.78718   0.79181   0.82150   0.82750
 Alpha virt. eigenvalues --    0.84122   0.85711   0.85971   0.86910   0.87219
 Alpha virt. eigenvalues --    0.87652   0.88682   0.89658   0.90225   0.90564
 Alpha virt. eigenvalues --    0.91873   0.92437   0.93437   0.98356   0.99227
 Alpha virt. eigenvalues --    1.02983   1.03121   1.04463   1.04969   1.07620
 Alpha virt. eigenvalues --    1.12716   1.14150   1.14165   1.16129   1.17263
 Alpha virt. eigenvalues --    1.19605   1.19899   1.23624   1.24620   1.26178
 Alpha virt. eigenvalues --    1.28949   1.29768   1.32044   1.34641   1.34878
 Alpha virt. eigenvalues --    1.38580   1.38939   1.42425   1.43030   1.44652
 Alpha virt. eigenvalues --    1.45750   1.51232   1.52048   1.52358   1.52470
 Alpha virt. eigenvalues --    1.53126   1.55268   1.56010   1.56622   1.57439
 Alpha virt. eigenvalues --    1.59558   1.60793   1.61869   1.65959   1.66902
 Alpha virt. eigenvalues --    1.73750   1.75625   1.75741   1.76550   1.79820
 Alpha virt. eigenvalues --    1.80041   1.81688   1.85200   1.88717   1.89006
 Alpha virt. eigenvalues --    1.92124   1.92787   1.94217   2.00434   2.00844
 Alpha virt. eigenvalues --    2.01920   2.03958   2.06601   2.07035   2.08975
 Alpha virt. eigenvalues --    2.10408   2.11353   2.11856   2.12828   2.13528
 Alpha virt. eigenvalues --    2.20656   2.23502   2.26242   2.26486   2.26598
 Alpha virt. eigenvalues --    2.27175   2.30095   2.31084   2.41271   2.43414
 Alpha virt. eigenvalues --    2.52305   2.55563   2.56041   2.60256   2.60584
 Alpha virt. eigenvalues --    2.65339   2.67301   2.67742   2.70787   2.71106
 Alpha virt. eigenvalues --    2.73720   2.74301   2.75294   2.81178   2.83244
 Alpha virt. eigenvalues --    2.86203   3.07709   3.08446   3.17313   3.29904
 Alpha virt. eigenvalues --    3.31198   4.02673   4.03151   4.04316   4.07359
 Alpha virt. eigenvalues --    4.09252   4.14742   4.22694   4.28593   4.32944
 Alpha virt. eigenvalues --    4.36349   4.44400   4.69908   4.72296   8.52339
 Alpha virt. eigenvalues --    8.58854   8.58929   8.64941   8.64975   8.70352
 Alpha virt. eigenvalues --   72.40772  72.44123  72.64221  73.89703  73.90540
 Alpha virt. eigenvalues --   77.35179
          Condensed to atoms (all electrons):
               1          2          3          4          5          6
     1  C    4.970449   0.438919  -0.002292  -0.040011  -0.027768   0.446703
     2  C    0.438919   5.161951   0.480355  -0.059970  -0.058210  -0.030769
     3  C   -0.002292   0.480355   4.669858   0.469259  -0.002693  -0.036935
     4  C   -0.040011  -0.059970   0.469259   5.815932   0.464395  -0.020074
     5  C   -0.027768  -0.058210  -0.002693   0.464395   5.105017   0.493293
     6  C    0.446703  -0.030769  -0.036935  -0.020074   0.493293   4.928215
     7  H   -0.049968   0.335595  -0.039396   0.007724   0.000340   0.005587
     8  H    0.004400   0.000333   0.005059  -0.075005   0.336941  -0.048870
     9  O    0.003369  -0.059634   0.218771  -0.081729   0.004271   0.000137
    10  C   -0.000095  -0.002186  -0.016336  -0.001585  -0.000202   0.000066
    11  C   -0.000086   0.004711  -0.002186   0.000234  -0.000042  -0.000004
    12  C    0.000045   0.000234  -0.001583   0.044923  -0.000238  -0.000009
    13  C    0.000008  -0.000086  -0.000095   0.000045   0.000000   0.000000
    14  H   -0.000028  -0.001190  -0.001261   0.000049   0.000002   0.000007
    15  C    0.000000  -0.000042  -0.000203  -0.000238   0.000006   0.000000
    16  C    0.000000  -0.000004   0.000065  -0.000009   0.000000   0.000000
    17  H    0.000000  -0.000001  -0.000006  -0.000077   0.000000   0.000000
    18  Br  -0.000914   0.003726  -0.020003  -0.386185  -0.048417   0.001302
    19  Br  -0.000021  -0.000368  -0.004532  -0.051945   0.001246  -0.000036
    20  Br  -0.073515   0.006320   0.000350   0.006455  -0.066340   0.258035
    21  Br   0.000000   0.000000   0.000000   0.000000   0.000000   0.000000
    22  Br   0.000000  -0.000003  -0.000001   0.000000   0.000000   0.000000
    23  Br   0.280973  -0.058596   0.004450   0.000364   0.006059  -0.068688
               7          8          9         10         11         12
     1  C   -0.049968   0.004400   0.003369  -0.000095  -0.000086   0.000045
     2  C    0.335595   0.000333  -0.059634  -0.002186   0.004711   0.000234
     3  C   -0.039396   0.005059   0.218771  -0.016336  -0.002186  -0.001583
     4  C    0.007724  -0.075005  -0.081729  -0.001585   0.000234   0.044923
     5  C    0.000340   0.336941   0.004271  -0.000202  -0.000042  -0.000238
     6  C    0.005587  -0.048870   0.000137   0.000066  -0.000004  -0.000009
     7  H    0.579193   0.000039   0.000823  -0.001260  -0.001190   0.000049
     8  H    0.000039   0.606282  -0.000018  -0.000006  -0.000001  -0.000077
     9  O    0.000823  -0.000018   8.397479   0.218777  -0.059635  -0.081730
    10  C   -0.001260  -0.000006   0.218777   4.669858   0.480351   0.469251
    11  C   -0.001190  -0.000001  -0.059635   0.480351   5.161954  -0.059970
    12  C    0.000049  -0.000077  -0.081730   0.469251  -0.059970   5.815918
    13  C   -0.000028   0.000000   0.003369  -0.002293   0.438919  -0.040009
    14  H    0.005693   0.000000   0.000822  -0.039395   0.335595   0.007724
    15  C    0.000002   0.000000   0.004271  -0.002693  -0.058210   0.464394
    16  C    0.000007   0.000000   0.000137  -0.036934  -0.030769  -0.020074
    17  H    0.000000   0.000000  -0.000018   0.005059   0.000333  -0.075005
    18  Br   0.000205   0.022214   0.012411  -0.004531  -0.000368  -0.051976
    19  Br   0.000060  -0.000006   0.012410  -0.020002   0.003726  -0.386144
    20  Br  -0.000019   0.004217   0.000002   0.000000   0.000000   0.000000
    21  Br   0.000000   0.000000   0.000002   0.000350   0.006319   0.006455
    22  Br   0.000000   0.000000  -0.000036   0.004450  -0.058596   0.000364
    23  Br  -0.000804  -0.000079  -0.000036  -0.000001  -0.000003   0.000000
              13         14         15         16         17         18
     1  C    0.000008  -0.000028   0.000000   0.000000   0.000000  -0.000914
     2  C   -0.000086  -0.001190  -0.000042  -0.000004  -0.000001   0.003726
     3  C   -0.000095  -0.001261  -0.000203   0.000065  -0.000006  -0.020003
     4  C    0.000045   0.000049  -0.000238  -0.000009  -0.000077  -0.386185
     5  C    0.000000   0.000002   0.000006   0.000000   0.000000  -0.048417
     6  C    0.000000   0.000007   0.000000   0.000000   0.000000   0.001302
     7  H   -0.000028   0.005693   0.000002   0.000007   0.000000   0.000205
     8  H    0.000000   0.000000   0.000000   0.000000   0.000000   0.022214
     9  O    0.003369   0.000822   0.004271   0.000137  -0.000018   0.012411
    10  C   -0.002293  -0.039395  -0.002693  -0.036934   0.005059  -0.004531
    11  C    0.438919   0.335595  -0.058210  -0.030769   0.000333  -0.000368
    12  C   -0.040009   0.007724   0.464394  -0.020074  -0.075005  -0.051976
    13  C    4.970447  -0.049968  -0.027768   0.446701   0.004400  -0.000021
    14  H   -0.049968   0.579191   0.000340   0.005587   0.000039   0.000060
    15  C   -0.027768   0.000340   5.105020   0.493295   0.336937   0.001246
    16  C    0.446701   0.005587   0.493295   4.928208  -0.048867  -0.000036
    17  H    0.004400   0.000039   0.336937  -0.048867   0.606278  -0.000006
    18  Br  -0.000021   0.000060   0.001246  -0.000036  -0.000006  34.970277
    19  Br  -0.000914   0.000205  -0.048418   0.001303   0.022217   0.261425
    20  Br   0.000000   0.000000   0.000000   0.000000   0.000000   0.000170
    21  Br  -0.073515  -0.000019  -0.066341   0.258040   0.004217   0.000001
    22  Br   0.280974  -0.000804   0.006059  -0.068688  -0.000079   0.000000
    23  Br   0.000000   0.000000   0.000000   0.000000   0.000000   0.000010
              19         20         21         22         23
     1  C   -0.000021  -0.073515   0.000000   0.000000   0.280973
     2  C   -0.000368   0.006320   0.000000  -0.000003  -0.058596
     3  C   -0.004532   0.000350   0.000000  -0.000001   0.004450
     4  C   -0.051945   0.006455   0.000000   0.000000   0.000364
     5  C    0.001246  -0.066340   0.000000   0.000000   0.006059
     6  C   -0.000036   0.258035   0.000000   0.000000  -0.068688
     7  H    0.000060  -0.000019   0.000000   0.000000  -0.000804
     8  H   -0.000006   0.004217   0.000000   0.000000  -0.000079
     9  O    0.012410   0.000002   0.000002  -0.000036  -0.000036
    10  C   -0.020002   0.000000   0.000350   0.004450  -0.000001
    11  C    0.003726   0.000000   0.006319  -0.058596  -0.000003
    12  C   -0.386144   0.000000   0.006455   0.000364   0.000000
    13  C   -0.000914   0.000000  -0.073515   0.280974   0.000000
    14  H    0.000205   0.000000  -0.000019  -0.000804   0.000000
    15  C   -0.048418   0.000000  -0.066341   0.006059   0.000000
    16  C    0.001303   0.000000   0.258040  -0.068688   0.000000
    17  H    0.022217   0.000000   0.004217  -0.000079   0.000000
    18  Br   0.261425   0.000170   0.000001   0.000000   0.000010
    19  Br  34.970233   0.000001   0.000170   0.000010   0.000000
    20  Br   0.000001  34.978230   0.000000   0.000000  -0.010444
    21  Br   0.000170   0.000000  34.978223  -0.010444   0.000000
    22  Br   0.000010   0.000000  -0.010444  34.927494   0.000000
    23  Br   0.000000  -0.010444   0.000000   0.000000  34.927496
 Mulliken charges:
               1
     1  C    0.049832
     2  C   -0.161082
     3  C    0.279355
     4  C   -0.092551
     5  C   -0.207659
     6  C    0.072040
     7  H    0.157350
     8  H    0.144575
     9  O   -0.594214
    10  C    0.279358
    11  C   -0.161082
    12  C   -0.092540
    13  C    0.049833
    14  H    0.157352
    15  C   -0.207657
    16  C    0.072039
    17  H    0.144578
    18  Br   0.239410
    19  Br   0.239382
    20  Br  -0.103461
    21  Br  -0.103457
    22  Br  -0.080699
    23  Br  -0.080701
 Sum of Mulliken charges =   0.00000
 Mulliken charges with hydrogens summed into heavy atoms:
               1
     1  C    0.049832
     2  C   -0.003732
     3  C    0.279355
     4  C   -0.092551
     5  C   -0.063084
     6  C    0.072040
     9  O   -0.594214
    10  C    0.279358
    11  C   -0.003731
    12  C   -0.092540
    13  C    0.049833
    15  C   -0.063079
    16  C    0.072039
    18  Br   0.239410
    19  Br   0.239382
    20  Br  -0.103461
    21  Br  -0.103457
    22  Br  -0.080699
    23  Br  -0.080701
 Electronic spatial extent (au):  <R**2>=          17702.6793
 Charge=              0.0000 electrons
 Dipole moment (field-independent basis, Debye):
    X=             -0.0001    Y=              3.9228    Z=             -0.1278  Tot=              3.9249
 Quadrupole moment (field-independent basis, Debye-Ang):
   XX=           -193.1492   YY=           -168.0495   ZZ=           -182.9220
   XY=              0.0005   XZ=             -0.0001   YZ=              3.2541
 Traceless Quadrupole moment (field-independent basis, Debye-Ang):
   XX=            -11.7757   YY=             13.3241   ZZ=             -1.5484
   XY=              0.0005   XZ=             -0.0001   YZ=              3.2541
 Octapole moment (field-independent basis, Debye-Ang**2):
  XXX=             -0.0032  YYY=             16.3881  ZZZ=             42.0986  XYY=              0.0012
  XXY=             20.8592  XXZ=             17.9669  XZZ=             -0.0004  YZZ=             -5.4697
  YYZ=              9.3544  XYZ=              0.0000
 Hexadecapole moment (field-independent basis, Debye-Ang**3):
 XXXX=         -11347.4812 YYYY=          -4382.0885 ZZZZ=          -1070.5382 XXXY=              0.0039
 XXXZ=             -0.0045 YYYX=              0.0076 YYYZ=             -6.1315 ZZZX=             -0.0009
 ZZZY=             -7.1689 XXYY=          -2510.5417 XXZZ=          -2023.6123 YYZZ=           -935.0896
 XXYZ=            -13.9383 YYXZ=             -0.0003 ZZXY=              0.0003
 N-N= 4.659044702941D+03 E-N=-4.735504130157D+04  KE= 1.586653905476D+04
 Calling FoFJK, ICntrl=      2127 FMM=F ISym2X=0 I1Cent= 0 IOpClX= 0 NMat=1 NMatS=1 NMatT=0.
 ***** Axes restored to original set *****
 -------------------------------------------------------------------
 Center     Atomic                   Forces (Hartrees/Bohr)
 Number     Number              X              Y              Z
 -------------------------------------------------------------------
      1        6           0.002098817    0.002665326    0.000817105
      2        6          -0.000463867    0.010415672    0.001612820
      3        6          -0.016495978    0.000741860   -0.003311118
      4        6          -0.034098663   -0.112504688   -0.035343138
      5        6           0.014853914   -0.018420955    0.009139312
      6        6           0.000209406    0.003893626    0.003941043
      7        1           0.003547114   -0.011318715    0.003919312
      8        1          -0.007071755    0.012755946   -0.005663412
      9        8          -0.000084378   -0.000426220   -0.027114989
     10        6           0.016472746    0.000746955   -0.003413197
     11        6           0.000470983    0.010415521    0.001610181
     12        6           0.033904937   -0.112493020   -0.035560418
     13        6          -0.002095504    0.002664088    0.000829978
     14        1          -0.003517794   -0.011320028    0.003941661
     15        6          -0.014788880   -0.018424037    0.009233450
     16        6          -0.000185403    0.003893895    0.003943519
     17        1           0.007030240    0.012758996   -0.005708077
     18       35          -0.205304639    0.106586262    0.037071542
     19       35           0.205507684    0.106684064    0.035776440
     20       35          -0.001354232    0.004772054   -0.001845524
     21       35           0.001340080    0.004772752   -0.001853789
     22       35          -0.005647006    0.000569267    0.004006689
     23       35           0.005672179    0.000571380    0.003970609
 -------------------------------------------------------------------
 Cartesian Forces:  Max     0.205507684 RMS     0.045646709

 GradGradGradGradGradGradGradGradGradGradGradGradGradGradGradGradGradGrad
 Berny optimization.
 FormGI is forming the generalized inverse of G from B-inverse, IUseBI=4.
 Internal  Forces:  Max     0.231492215 RMS     0.026947479
 Search for a local minimum.
 Step number   1 out of a maximum of  131
 All quantities printed in internal units (Hartrees-Bohrs-Radians)
 Mixed Optimization -- RFO/linear search
 Second derivative matrix not updated -- first step.
 ITU=  0
     Eigenvalues ---    0.01424   0.01586   0.01720   0.01870   0.01937
     Eigenvalues ---    0.01942   0.02070   0.02070   0.02070   0.02070
     Eigenvalues ---    0.02070   0.02070   0.02070   0.02070   0.02070
     Eigenvalues ---    0.02070   0.02070   0.02070   0.02444   0.07433
     Eigenvalues ---    0.16000   0.16000   0.16000   0.16000   0.16311
     Eigenvalues ---    0.16966   0.17771   0.17771   0.17771   0.17771
     Eigenvalues ---    0.18156   0.20649   0.23098   0.23112   0.23996
     Eigenvalues ---    0.24005   0.24866   0.25000   0.25000   0.25000
     Eigenvalues ---    0.25000   0.25000   0.25000   0.25000   0.37230
     Eigenvalues ---    0.37230   0.37230   0.37230   0.38921   0.39812
     Eigenvalues ---    0.40648   0.41344   0.41457   0.41470   0.41646
     Eigenvalues ---    0.44602   0.45252   0.45389   0.45389   0.45389
     Eigenvalues ---    0.45389   0.45389   0.45389
 RFO step:  Lambda=-1.82087868D-01 EMin= 1.42419318D-02
 Linear search not attempted -- first point.
 Maximum step size (   0.300) exceeded in Quadratic search.
    -- Step size scaled by   0.482
 Iteration  1 RMS(Cart)=  0.03962075 RMS(Int)=  0.00050509
 Iteration  2 RMS(Cart)=  0.00083270 RMS(Int)=  0.00018029
 Iteration  3 RMS(Cart)=  0.00000047 RMS(Int)=  0.00018029
 Variable       Old X    -DE/DX   Delta X   Delta X   Delta X     New X
                                 (Linear)    (Quad)   (Total)
    R1        2.64826  -0.00693   0.00000  -0.00495  -0.00495   2.64331
    R2        2.64826   0.00186   0.00000   0.00218   0.00221   2.65048
    R3        3.60938  -0.00396   0.00000  -0.00531  -0.00531   3.60407
    R4        2.64826  -0.00914   0.00000  -0.00739  -0.00743   2.64084
    R5        2.02201   0.01238   0.00000   0.01076   0.01076   2.03277
    R6        2.64826  -0.00569   0.00000  -0.00656  -0.00676   2.64150
    R7        2.70231  -0.00214   0.00000  -0.00492  -0.00523   2.69708
    R8        2.64826  -0.01080   0.00000  -0.00849  -0.00849   2.63977
    R9        3.60938   0.11352   0.00000   0.15470   0.15484   3.76422
   R10        2.64826  -0.00795   0.00000  -0.00556  -0.00552   2.64274
   R11        2.02201   0.01556   0.00000   0.01353   0.01353   2.03554
   R12        3.60938   0.00218   0.00000   0.00292   0.00292   3.61229
   R13        2.70231  -0.00215   0.00000  -0.00492  -0.00523   2.69707
   R14        2.64826  -0.00914   0.00000  -0.00739  -0.00743   2.64084
   R15        2.64826  -0.00569   0.00000  -0.00656  -0.00676   2.64151
   R16        2.64826  -0.00693   0.00000  -0.00495  -0.00495   2.64331
   R17        2.02201   0.01238   0.00000   0.01076   0.01076   2.03277
   R18        2.64826  -0.01080   0.00000  -0.00849  -0.00849   2.63977
   R19        3.60938   0.11351   0.00000   0.15469   0.15483   3.76421
   R20        2.64826   0.00186   0.00000   0.00218   0.00221   2.65048
   R21        3.60938  -0.00396   0.00000  -0.00531  -0.00531   3.60407
   R22        2.64826  -0.00795   0.00000  -0.00556  -0.00552   2.64274
   R23        2.02201   0.01556   0.00000   0.01353   0.01353   2.03554
   R24        3.60938   0.00218   0.00000   0.00291   0.00291   3.61229
   R25        3.62810   0.23149   0.00000   0.19004   0.19042   3.81852
    A1        2.09440  -0.00003   0.00000   0.00040   0.00037   2.09477
    A2        2.09440  -0.01027   0.00000  -0.01167  -0.01166   2.08274
    A3        2.09440   0.01030   0.00000   0.01127   0.01128   2.10568
    A4        2.09440  -0.00130   0.00000  -0.00309  -0.00318   2.09121
    A5        2.09440  -0.00054   0.00000  -0.00014  -0.00009   2.09430
    A6        2.09440   0.00184   0.00000   0.00323   0.00327   2.09767
    A7        2.09440   0.00323   0.00000   0.00574   0.00590   2.10030
    A8        2.09440  -0.01828   0.00000  -0.01371  -0.01334   2.08105
    A9        2.09440   0.01504   0.00000   0.00797   0.00744   2.10183
   A10        2.09440  -0.00252   0.00000  -0.00377  -0.00381   2.09058
   A11        2.09440   0.01561   0.00000   0.01514   0.01504   2.10943
   A12        2.09440  -0.01309   0.00000  -0.01138  -0.01126   2.08313
   A13        2.09440   0.00427   0.00000   0.00412   0.00409   2.09849
   A14        2.09440  -0.00065   0.00000   0.00004   0.00005   2.09444
   A15        2.09440  -0.00362   0.00000  -0.00416  -0.00414   2.09025
   A16        2.09440  -0.00366   0.00000  -0.00340  -0.00339   2.09101
   A17        2.09440   0.01044   0.00000   0.01131   0.01131   2.10570
   A18        2.09440  -0.00679   0.00000  -0.00791  -0.00792   2.08648
   A19        1.91063   0.01219   0.00000   0.02012   0.02018   1.93081
   A20        2.09440  -0.01828   0.00000  -0.01371  -0.01335   2.08105
   A21        2.09440   0.01504   0.00000   0.00797   0.00744   2.10184
   A22        2.09440   0.00323   0.00000   0.00574   0.00590   2.10030
   A23        2.09440  -0.00130   0.00000  -0.00309  -0.00318   2.09121
   A24        2.09440   0.00184   0.00000   0.00323   0.00327   2.09767
   A25        2.09440  -0.00054   0.00000  -0.00014  -0.00009   2.09430
   A26        2.09440  -0.00252   0.00000  -0.00377  -0.00381   2.09058
   A27        2.09440   0.01562   0.00000   0.01515   0.01505   2.10945
   A28        2.09440  -0.01310   0.00000  -0.01139  -0.01128   2.08312
   A29        2.09440  -0.00003   0.00000   0.00040   0.00037   2.09477
   A30        2.09440  -0.01027   0.00000  -0.01167  -0.01166   2.08274
   A31        2.09440   0.01030   0.00000   0.01127   0.01128   2.10568
   A32        2.09440   0.00427   0.00000   0.00412   0.00409   2.09849
   A33        2.09440  -0.00065   0.00000   0.00003   0.00005   2.09444
   A34        2.09440  -0.00362   0.00000  -0.00415  -0.00414   2.09025
   A35        2.09440  -0.00365   0.00000  -0.00340  -0.00339   2.09101
   A36        2.09440   0.01044   0.00000   0.01131   0.01131   2.10570
   A37        2.09440  -0.00679   0.00000  -0.00791  -0.00792   2.08648
   A38        1.99133  -0.03333   0.00000  -0.03199  -0.03119   1.96014
   A39        1.99133  -0.03335   0.00000  -0.03202  -0.03122   1.96011
    D1        0.00000  -0.00015   0.00000  -0.00075  -0.00075  -0.00075
    D2        3.14159   0.00139   0.00000   0.00098   0.00093  -3.14066
    D3       -3.14159  -0.00096   0.00000  -0.00157  -0.00153   3.14006
    D4        0.00000   0.00058   0.00000   0.00017   0.00014   0.00014
    D5        0.00000  -0.00114   0.00000  -0.00144  -0.00140  -0.00140
    D6       -3.14159  -0.00079   0.00000  -0.00143  -0.00144   3.14016
    D7        3.14159  -0.00033   0.00000  -0.00062  -0.00060   3.14099
    D8        0.00000   0.00002   0.00000  -0.00062  -0.00064  -0.00064
    D9        0.00000   0.00258   0.00000   0.00432   0.00427   0.00427
   D10        3.14159   0.00456   0.00000   0.00524   0.00511  -3.13649
   D11        3.14159   0.00103   0.00000   0.00259   0.00259  -3.13900
   D12        0.00000   0.00302   0.00000   0.00351   0.00343   0.00343
   D13        0.00000  -0.00371   0.00000  -0.00570  -0.00562  -0.00562
   D14       -3.14159  -0.00850   0.00000  -0.01471  -0.01465   3.12695
   D15       -3.14159  -0.00569   0.00000  -0.00662  -0.00647   3.13513
   D16        0.00000  -0.01048   0.00000  -0.01563  -0.01550  -0.01549
   D17        1.57080  -0.01253   0.00000  -0.01684  -0.01649   1.55431
   D18       -1.57080  -0.01054   0.00000  -0.01592  -0.01565  -1.58645
   D19        0.00000   0.00242   0.00000   0.00351   0.00346   0.00346
   D20        3.14159   0.00019   0.00000   0.00015   0.00015  -3.14145
   D21        3.14159   0.00721   0.00000   0.01252   0.01235  -3.12925
   D22        0.00000   0.00498   0.00000   0.00916   0.00904   0.00903
   D23        0.68471  -0.00873   0.00000  -0.00768  -0.00732   0.67739
   D24       -2.45688  -0.01352   0.00000  -0.01668  -0.01631  -2.47319
   D25        0.00000   0.00001   0.00000   0.00006   0.00004   0.00004
   D26        3.14159  -0.00034   0.00000   0.00005   0.00008  -3.14152
   D27       -3.14159   0.00224   0.00000   0.00342   0.00334  -3.13825
   D28        0.00000   0.00189   0.00000   0.00342   0.00338   0.00338
   D29       -1.57080   0.01253   0.00000   0.01685   0.01650  -1.55430
   D30        1.57080   0.01055   0.00000   0.01593   0.01566   1.58646
   D31       -3.14159  -0.00456   0.00000  -0.00524  -0.00511   3.13649
   D32        0.00000  -0.00302   0.00000  -0.00351  -0.00343  -0.00343
   D33        0.00000  -0.00258   0.00000  -0.00432  -0.00427  -0.00427
   D34       -3.14159  -0.00103   0.00000  -0.00259  -0.00259   3.13900
   D35       -3.14159   0.00569   0.00000   0.00662   0.00647  -3.13512
   D36        0.00000   0.01049   0.00000   0.01563   0.01550   0.01550
   D37        0.00000   0.00371   0.00000   0.00570   0.00562   0.00562
   D38       -3.14159   0.00850   0.00000   0.01471   0.01465  -3.12694
   D39        0.00000   0.00015   0.00000   0.00075   0.00075   0.00074
   D40       -3.14159   0.00096   0.00000   0.00157   0.00153  -3.14006
   D41        3.14159  -0.00139   0.00000  -0.00098  -0.00093   3.14066
   D42        0.00000  -0.00058   0.00000  -0.00017  -0.00014  -0.00014
   D43        0.00000  -0.00242   0.00000  -0.00351  -0.00346  -0.00346
   D44        3.14159  -0.00019   0.00000  -0.00015  -0.00015   3.14144
   D45        3.14159  -0.00721   0.00000  -0.01252  -0.01235   3.12924
   D46        0.00000  -0.00498   0.00000  -0.00916  -0.00904  -0.00904
   D47       -0.68472   0.00873   0.00000   0.00768   0.00732  -0.67741
   D48        2.45687   0.01352   0.00000   0.01668   0.01631   2.47318
   D49        0.00000   0.00114   0.00000   0.00143   0.00140   0.00140
   D50       -3.14159   0.00079   0.00000   0.00143   0.00144  -3.14016
   D51        3.14159   0.00033   0.00000   0.00062   0.00060  -3.14099
   D52        0.00000  -0.00002   0.00000   0.00062   0.00064   0.00063
   D53        0.00000  -0.00001   0.00000  -0.00006  -0.00004  -0.00004
   D54        3.14159   0.00034   0.00000  -0.00005  -0.00008   3.14152
   D55        3.14159  -0.00224   0.00000  -0.00342  -0.00334   3.13825
   D56        0.00000  -0.00189   0.00000  -0.00342  -0.00338  -0.00338
   D57        0.00001   0.00000   0.00000   0.00000   0.00000   0.00001
         Item               Value     Threshold  Converged?
 Maximum Force            0.231492     0.000450     NO 
 RMS     Force            0.026947     0.000300     NO 
 Maximum Displacement     0.175612     0.001800     NO 
 RMS     Displacement     0.039063     0.001200     NO 
 Predicted change in Energy=-7.510029D-02
 GradGradGradGradGradGradGradGradGradGradGradGradGradGradGradGradGradGrad

                          Input orientation:                          
 ---------------------------------------------------------------------
 Center     Atomic      Atomic             Coordinates (Angstroms)
 Number     Number       Type             X           Y           Z
 ---------------------------------------------------------------------
      1          6           0       -2.870582   -1.225485   -0.518830
      2          6           0       -1.721591   -1.212424    0.278812
      3          6           0       -1.170763    0.006330    0.683963
      4          6           0       -1.765045    1.212000    0.300431
      5          6           0       -2.911534    1.197479   -0.497505
      6          6           0       -3.467518   -0.017849   -0.909330
      7          1           0       -1.263633   -2.138855    0.577344
      8          1           0       -3.372324    2.124463   -0.795246
      9          8           0        0.005389    0.005266    1.492453
     10          6           0        1.176393    0.006794    0.676527
     11          6           0        1.725118   -1.211744    0.267887
     12          6           0        1.767765    1.212698    0.289242
     13          6           0        2.869035   -1.224356   -0.537022
     14          1           0        1.269422   -2.138354    0.569312
     15          6           0        2.909177    1.198624   -0.515947
     16          6           0        3.463010   -0.016486   -0.931295
     17          1           0        3.367708    2.125788   -0.816600
     18         35           0       -1.007422    2.957492    0.889564
     19         35           0        1.013240    2.957902    0.883176
     20         35           0       -5.036618   -0.014763   -2.001076
     21         35           0        5.025154   -0.012786   -2.032970
     22         35           0        3.604812   -2.895157   -1.088769
     23         35           0       -3.609194   -2.896576   -1.065894
 ---------------------------------------------------------------------
                    Distance matrix (angstroms):
                    1          2          3          4          5
     1  C    0.000000
     2  C    1.398780   0.000000
     3  C    2.419394   1.397470   0.000000
     4  C    2.799060   2.424910   1.397823   0.000000
     5  C    2.423403   2.797546   2.417641   1.396908   0.000000
     6  C    1.402572   2.426304   2.795399   2.423729   1.398477
     7  H    2.148984   1.075696   2.149840   3.399460   3.873242
     8  H    3.398573   3.874704   3.394322   2.148591   1.077161
     9  O    3.719035   2.436833   1.427231   2.451849   3.726895
    10  C    4.396067   3.169067   2.347167   3.200942   4.416699
    11  C    4.662572   3.446727   3.169062   4.249334   5.280978
    12  C    5.302073   4.249345   3.200948   3.532828   4.745002
    13  C    5.739646   4.662572   4.396062   5.302062   6.267521
    14  H    4.376874   3.144503   3.250741   4.528263   5.454015
    15  C    6.267530   5.280985   4.416702   4.744998   5.820740
    16  C    6.461130   5.456622   4.907284   5.509890   6.503591
    17  H    7.087733   6.184218   5.228910   5.331784   6.355506
    18  Br   4.790850   4.274489   2.962821   1.991937   2.940621
    19  Br   5.877962   5.023563   3.677136   3.332662   4.517657
    20  Br   2.890435   4.197819   4.706880   4.183907   2.871626
    21  Br   8.130555   7.232015   6.765462   7.283658   8.173947
    22  Br   6.711436   5.750864   5.862365   6.901738   7.717644
    23  Br   1.907189   2.864899   4.175502   4.706180   4.191787
                    6          7          8          9         10
     6  C    0.000000
     7  H    3.400879   0.000000
     8  H    2.147458   4.950400   0.000000
     9  O    4.222580   2.654259   4.597120   0.000000
    10  C    4.907286   3.250749   5.228907   1.427230   0.000000
    11  C    5.456620   3.144508   6.184210   2.436830   1.397470
    12  C    5.509901   4.528275   5.331787   2.451851   1.397824
    13  C    6.461128   4.376878   7.087724   3.719033   2.419395
    14  H    5.396437   2.533068   6.448212   2.654256   2.149840
    15  C    6.503598   5.454025   6.355505   3.726896   2.417642
    16  C    6.930563   5.396443   7.164075   4.222579   2.795399
    17  H    7.164083   6.448222   6.740066   4.597121   3.394322
    18  Br   4.259195   5.112326   3.020808   3.178821   3.677099
    19  Br   5.669689   5.590583   4.769161   3.178843   2.962830
    20  Br   1.911543   5.039389   2.966511   6.134084   6.765466
    21  Br   8.566684   7.133214   8.753139   6.134083   4.706880
    22  Br   7.637340   5.200931   8.600185   5.294431   4.175502
    23  Br   2.886461   2.962437   5.033904   5.294434   5.862374
                   11         12         13         14         15
    11  C    0.000000
    12  C    2.424911   0.000000
    13  C    1.398779   2.799060   0.000000
    14  H    1.075696   3.399461   2.148983   0.000000
    15  C    2.797546   1.396907   2.423403   3.873242   0.000000
    16  C    2.426304   2.423729   1.402572   3.400879   1.398477
    17  H    3.874704   2.148590   3.398573   4.950400   1.077161
    18  Br   5.023524   3.332621   5.877919   5.590549   4.517613
    19  Br   4.274495   1.991935   4.790848   5.112335   2.940609
    20  Br   7.232015   7.283670   8.130555   7.133210   8.173957
    21  Br   4.197819   4.183905   2.890434   5.039388   2.871625
    22  Br   2.864899   4.706180   1.907189   2.962436   4.191787
    23  Br   5.750871   6.901754   6.711444   5.200932   7.717659
                   16         17         18         19         20
    16  C    0.000000
    17  H    2.147458   0.000000
    18  Br   5.669643   4.769119   0.000000
    19  Br   4.259186   3.020790   2.020673   0.000000
    20  Br   8.566687   8.753151   5.781395   7.331879   0.000000
    21  Br   1.911542   2.966510   7.331831   5.781380  10.061824
    22  Br   2.886461   5.033904   7.709735   6.697994   9.154414
    23  Br   7.637350   8.600201   6.697996   7.709779   3.349172
                   21         22         23
    21  Br   0.000000
    22  Br   3.349171   0.000000
    23  Br   9.154423   7.214043   0.000000
 Stoichiometry    C12H4Br6O
 Framework group  C1[X(C12H4Br6O)]
 Deg. of freedom    63
 Full point group                 C1      NOp   1
 Largest Abelian subgroup         C1      NOp   1
 Largest concise Abelian subgroup C1      NOp   1
                         Standard orientation:                         
 ---------------------------------------------------------------------
 Center     Atomic      Atomic             Coordinates (Angstroms)
 Number     Number       Type             X           Y           Z
 ---------------------------------------------------------------------
      1          6           0        2.869832   -1.158682   -0.427262
      2          6           0        1.723371   -0.861929   -1.171674
      3          6           0        1.173585    0.421767   -1.118924
      4          6           0        1.766409    1.411875   -0.330156
      5          6           0        2.910366    1.113654    0.414005
      6          6           0        3.465286   -0.169215    0.368726
      7          1           0        1.266546   -1.621361   -1.781342
      8          1           0        3.370026    1.873882    1.023137
      9          8           0        0.000001    0.709197   -1.878578
     10          6           0       -1.173582    0.421762   -1.118927
     11          6           0       -1.723356   -0.861939   -1.171674
     12          6           0       -1.766419    1.411868   -0.330164
     13          6           0       -2.869814   -1.158702   -0.427263
     14          1           0       -1.266522   -1.621369   -1.781339
     15          6           0       -2.910374    1.113637    0.413997
     16          6           0       -3.465277   -0.169239    0.368723
     17          1           0       -3.370040    1.873862    1.023128
     18         35           0        1.010307    3.253502   -0.262811
     19         35           0       -1.010366    3.253512   -0.262823
     20         35           0        5.030919   -0.555789    1.395054
     21         35           0       -5.030905   -0.555826    1.395054
     22         35           0       -3.607002   -2.915824   -0.507538
     23         35           0        3.607041   -2.915796   -0.507547
 ---------------------------------------------------------------------
 Rotational constants (GHZ):      0.1360285      0.0664555      0.0489779
 Standard basis: 6-31G(d) (6D, 7F)
 There are   383 symmetry adapted cartesian basis functions of A   symmetry.
 There are   383 symmetry adapted basis functions of A   symmetry.
   383 basis functions,   878 primitive gaussians,   383 cartesian basis functions
   147 alpha electrons      147 beta electrons
       nuclear repulsion energy      4610.9510871267 Hartrees.
 NAtoms=   23 NActive=   23 NUniq=   23 SFac= 1.00D+00 NAtFMM=   60 NAOKFM=F Big=F
 Integral buffers will be    131072 words long.
 Raffenetti 2 integral format.
 Two-electron integral symmetry is turned on.
 One-electron integrals computed using PRISM.
 NBasis=   383 RedAO= T EigKep=  3.67D-04  NBF=   383
 NBsUse=   383 1.00D-06 EigRej= -1.00D+00 NBFU=   383
 Initial guess from the checkpoint file:  "10.chk"
 B after Tr=     0.000000    0.000000    0.000000
         Rot=    0.999999   -0.001420    0.000000   -0.000002 Ang=  -0.16 deg.
 ExpMin= 1.43D-01 ExpMax= 5.74D+05 ExpMxC= 5.74D+03 IAcc=2 IRadAn=         4 AccDes= 0.00D+00
 Harris functional with IExCor=  402 and IRadAn=       4 diagonalized for initial guess.
 HarFok:  IExCor=  402 AccDes= 0.00D+00 IRadAn=         4 IDoV= 1 UseB2=F ITyADJ=14
 ICtDFT=  3500011 ScaDFX=  1.000000  1.000000  1.000000  1.000000
 FoFCou: FMM=F IPFlag=           0 FMFlag=      100000 FMFlg1=           0
         NFxFlg=           0 DoJE=T BraDBF=F KetDBF=T FulRan=T
         wScrn=  0.000000 ICntrl=     500 IOpCl=  0 I1Cent=   200000004 NGrid=           0
         NMat0=    1 NMatS0=      1 NMatT0=    0 NMatD0=    1 NMtDS0=    0 NMtDT0=    0
 Petite list used in FoFCou.
 Requested convergence on RMS density matrix=1.00D-08 within 128 cycles.
 Requested convergence on MAX density matrix=1.00D-06.
 Requested convergence on             energy=1.00D-06.
 No special actions if energy rises.
 Integral accuracy reduced to 1.0D-05 until final iterations.
 Initial convergence to 1.0D-05 achieved.  Increase integral accuracy.
 SCF Done:  E(RB3LYP) =  -15964.7891020     A.U. after   19 cycles
            NFock= 19  Conv=0.44D-08     -V/T= 2.0062
 Calling FoFJK, ICntrl=      2127 FMM=F ISym2X=0 I1Cent= 0 IOpClX= 0 NMat=1 NMatS=1 NMatT=0.
 ***** Axes restored to original set *****
 -------------------------------------------------------------------
 Center     Atomic                   Forces (Hartrees/Bohr)
 Number     Number              X              Y              Z
 -------------------------------------------------------------------
      1        6          -0.000019085    0.002370336   -0.000398641
      2        6          -0.000304295    0.005850024    0.001544163
      3        6          -0.009194711    0.002431769   -0.000370163
      4        6          -0.021473852   -0.087569672   -0.026992765
      5        6           0.011008858   -0.008815139    0.006846188
      6        6          -0.000884169    0.000674786    0.002670538
      7        1           0.002063169   -0.007167561    0.002571097
      8        1          -0.005146473    0.007746219   -0.004416387
      9        8          -0.000079959    0.001868986   -0.022748402
     10        6           0.009201354    0.002442214   -0.000439338
     11        6           0.000306710    0.005852116    0.001540578
     12        6           0.021403629   -0.087546730   -0.027118446
     13        6           0.000018177    0.002372628   -0.000399726
     14        1          -0.002044016   -0.007168805    0.002584147
     15        6          -0.010959214   -0.008835737    0.006913401
     16        6           0.000899802    0.000673260    0.002659738
     17        1           0.005118059    0.007746227   -0.004448204
     18       35          -0.101384963    0.079687685    0.028483761
     19       35           0.101458056    0.079625645    0.027812178
     20       35          -0.000112418    0.002771878   -0.000731520
     21       35           0.000109264    0.002771005   -0.000733792
     22       35          -0.003667358    0.001108373    0.002597408
     23       35           0.003683433    0.001110492    0.002574185
 -------------------------------------------------------------------
 Cartesian Forces:  Max     0.101458056 RMS     0.028041277

 GradGradGradGradGradGradGradGradGradGradGradGradGradGradGradGradGradGrad
 Berny optimization.
 Using GEDIIS/GDIIS optimizer.
 FormGI is forming the generalized inverse of G from B-inverse, IUseBI=4.
 Internal  Forces:  Max     0.120578374 RMS     0.016378673
 Search for a local minimum.
 Step number   2 out of a maximum of  131
 All quantities printed in internal units (Hartrees-Bohrs-Radians)
 Mixed Optimization -- RFO/linear search
 Update second derivatives using D2CorX and points    1    2
 DE= -7.03D-02 DEPred=-7.51D-02 R= 9.36D-01
 TightC=F SS=  1.41D+00  RLast= 3.06D-01 DXNew= 5.0454D-01 9.1722D-01
 Trust test= 9.36D-01 RLast= 3.06D-01 DXMaxT set to 5.05D-01
 ITU=  1  0
 Use linear search instead of GDIIS.
 Linear search step of   0.600 exceeds DXMaxT=   0.505 but not scaled.
 Quartic linear search produced a step of  2.00000.
 Iteration  1 RMS(Cart)=  0.04775385 RMS(Int)=  0.02110920
 Iteration  2 RMS(Cart)=  0.02941881 RMS(Int)=  0.00099967
 Iteration  3 RMS(Cart)=  0.00036874 RMS(Int)=  0.00098062
 Iteration  4 RMS(Cart)=  0.00000044 RMS(Int)=  0.00098062
 Variable       Old X    -DE/DX   Delta X   Delta X   Delta X     New X
                                 (Linear)    (Quad)   (Total)
    R1        2.64331  -0.00369  -0.00990   0.00000  -0.00989   2.63343
    R2        2.65048  -0.00028   0.00443   0.00000   0.00464   2.65511
    R3        3.60407  -0.00314  -0.01062   0.00000  -0.01062   3.59344
    R4        2.64084  -0.00498  -0.01485   0.00000  -0.01505   2.62579
    R5        2.03277   0.00777   0.02153   0.00000   0.02153   2.05430
    R6        2.64150  -0.00708  -0.01352   0.00000  -0.01461   2.62689
    R7        2.69708  -0.00547  -0.01046   0.00000  -0.01207   2.68500
    R8        2.63977  -0.00711  -0.01698   0.00000  -0.01699   2.62278
    R9        3.76422   0.08542   0.30968   0.00000   0.31030   4.07452
   R10        2.64274  -0.00404  -0.01105   0.00000  -0.01086   2.63188
   R11        2.03554   0.01009   0.02707   0.00000   0.02707   2.06261
   R12        3.61229   0.00051   0.00583   0.00000   0.00583   3.61812
   R13        2.69707  -0.00546  -0.01047   0.00000  -0.01208   2.68500
   R14        2.64084  -0.00498  -0.01485   0.00000  -0.01504   2.62579
   R15        2.64151  -0.00710  -0.01351   0.00000  -0.01460   2.62691
   R16        2.64331  -0.00368  -0.00990   0.00000  -0.00989   2.63342
   R17        2.03277   0.00777   0.02153   0.00000   0.02153   2.05430
   R18        2.63977  -0.00710  -0.01698   0.00000  -0.01700   2.62277
   R19        3.76421   0.08543   0.30967   0.00000   0.31030   4.07451
   R20        2.65048  -0.00028   0.00443   0.00000   0.00464   2.65511
   R21        3.60407  -0.00314  -0.01062   0.00000  -0.01062   3.59344
   R22        2.64274  -0.00404  -0.01105   0.00000  -0.01086   2.63188
   R23        2.03554   0.01009   0.02707   0.00000   0.02707   2.06261
   R24        3.61229   0.00052   0.00583   0.00000   0.00583   3.61812
   R25        3.81852   0.12058   0.38084   0.00000   0.38277   4.20128
    A1        2.09477  -0.00002   0.00075   0.00000   0.00063   2.09540
    A2        2.08274  -0.00611  -0.02332   0.00000  -0.02326   2.05948
    A3        2.10568   0.00613   0.02257   0.00000   0.02262   2.12830
    A4        2.09121  -0.00146  -0.00637   0.00000  -0.00689   2.08432
    A5        2.09430  -0.00020  -0.00018   0.00000   0.00008   2.09438
    A6        2.09767   0.00166   0.00655   0.00000   0.00680   2.10447
    A7        2.10030   0.00243   0.01181   0.00000   0.01269   2.11299
    A8        2.08105  -0.00963  -0.02669   0.00000  -0.02466   2.05639
    A9        2.10183   0.00720   0.01488   0.00000   0.01198   2.11381
   A10        2.09058  -0.00079  -0.00762   0.00000  -0.00782   2.08277
   A11        2.10943   0.01082   0.03008   0.00000   0.02932   2.13875
   A12        2.08313  -0.01007  -0.02253   0.00000  -0.02177   2.06136
   A13        2.09849   0.00208   0.00819   0.00000   0.00801   2.10650
   A14        2.09444   0.00086   0.00009   0.00000   0.00016   2.09461
   A15        2.09025  -0.00295  -0.00829   0.00000  -0.00821   2.08204
   A16        2.09101  -0.00226  -0.00678   0.00000  -0.00671   2.08429
   A17        2.10570   0.00613   0.02261   0.00000   0.02258   2.12828
   A18        2.08648  -0.00387  -0.01583   0.00000  -0.01587   2.07061
   A19        1.93081   0.00845   0.04036   0.00000   0.04083   1.97164
   A20        2.08105  -0.00963  -0.02669   0.00000  -0.02467   2.05638
   A21        2.10184   0.00719   0.01488   0.00000   0.01198   2.11382
   A22        2.10030   0.00244   0.01181   0.00000   0.01268   2.11298
   A23        2.09121  -0.00146  -0.00637   0.00000  -0.00689   2.08432
   A24        2.09767   0.00166   0.00655   0.00000   0.00680   2.10447
   A25        2.09430  -0.00020  -0.00018   0.00000   0.00008   2.09438
   A26        2.09058  -0.00078  -0.00762   0.00000  -0.00782   2.08277
   A27        2.10945   0.01077   0.03010   0.00000   0.02934   2.13879
   A28        2.08312  -0.01001  -0.02255   0.00000  -0.02180   2.06132
   A29        2.09477  -0.00002   0.00075   0.00000   0.00063   2.09540
   A30        2.08274  -0.00611  -0.02332   0.00000  -0.02326   2.05948
   A31        2.10568   0.00614   0.02257   0.00000   0.02262   2.12830
   A32        2.09849   0.00208   0.00819   0.00000   0.00801   2.10650
   A33        2.09444   0.00087   0.00009   0.00000   0.00016   2.09460
   A34        2.09025  -0.00295  -0.00829   0.00000  -0.00821   2.08204
   A35        2.09101  -0.00226  -0.00678   0.00000  -0.00671   2.08429
   A36        2.10570   0.00613   0.02261   0.00000   0.02258   2.12828
   A37        2.08648  -0.00386  -0.01584   0.00000  -0.01587   2.07061
   A38        1.96014  -0.02001  -0.06238   0.00000  -0.05777   1.90238
   A39        1.96011  -0.01986  -0.06244   0.00000  -0.05783   1.90228
    D1       -0.00075  -0.00008  -0.00149   0.00000  -0.00143  -0.00218
    D2       -3.14066   0.00072   0.00186   0.00000   0.00160  -3.13906
    D3        3.14006  -0.00058  -0.00307   0.00000  -0.00289   3.13717
    D4        0.00014   0.00022   0.00028   0.00000   0.00015   0.00029
    D5       -0.00140  -0.00071  -0.00280   0.00000  -0.00260  -0.00400
    D6        3.14016  -0.00061  -0.00287   0.00000  -0.00290   3.13726
    D7        3.14099  -0.00021  -0.00120   0.00000  -0.00106   3.13993
    D8       -0.00064  -0.00011  -0.00127   0.00000  -0.00136  -0.00200
    D9        0.00427   0.00167   0.00854   0.00000   0.00827   0.01253
   D10       -3.13649   0.00273   0.01021   0.00000   0.00950  -3.12699
   D11       -3.13900   0.00086   0.00518   0.00000   0.00521  -3.13379
   D12        0.00343   0.00192   0.00685   0.00000   0.00644   0.00986
   D13       -0.00562  -0.00243  -0.01125   0.00000  -0.01086  -0.01648
   D14        3.12695  -0.00631  -0.02930   0.00000  -0.02905   3.09790
   D15        3.13513  -0.00351  -0.01294   0.00000  -0.01215   3.12298
   D16       -0.01549  -0.00739  -0.03099   0.00000  -0.03034  -0.04583
   D17        1.55431  -0.00712  -0.03298   0.00000  -0.03118   1.52313
   D18       -1.58645  -0.00606  -0.03131   0.00000  -0.02995  -1.61640
   D19        0.00346   0.00161   0.00691   0.00000   0.00664   0.01009
   D20       -3.14145   0.00019   0.00030   0.00000   0.00030  -3.14115
   D21       -3.12925   0.00533   0.02469   0.00000   0.02376  -3.10549
   D22        0.00903   0.00391   0.01808   0.00000   0.01742   0.02645
   D23        0.67739  -0.00440  -0.01464   0.00000  -0.01283   0.66456
   D24       -2.47319  -0.00822  -0.03262   0.00000  -0.03074  -2.50393
   D25        0.00004  -0.00005   0.00008   0.00000  -0.00003   0.00001
   D26       -3.14152  -0.00015   0.00015   0.00000   0.00025  -3.14126
   D27       -3.13825   0.00136   0.00668   0.00000   0.00624  -3.13201
   D28        0.00338   0.00126   0.00675   0.00000   0.00653   0.00991
   D29       -1.55430   0.00709   0.03299   0.00000   0.03119  -1.52311
   D30        1.58646   0.00602   0.03132   0.00000   0.02997   1.61642
   D31        3.13649  -0.00273  -0.01021   0.00000  -0.00950   3.12699
   D32       -0.00343  -0.00192  -0.00686   0.00000  -0.00644  -0.00986
   D33       -0.00427  -0.00166  -0.00854   0.00000  -0.00827  -0.01254
   D34        3.13900  -0.00086  -0.00518   0.00000  -0.00521   3.13379
   D35       -3.13512   0.00351   0.01294   0.00000   0.01215  -3.12297
   D36        0.01550   0.00737   0.03100   0.00000   0.03035   0.04585
   D37        0.00562   0.00242   0.01125   0.00000   0.01086   0.01649
   D38       -3.12694   0.00629   0.02931   0.00000   0.02906  -3.09787
   D39        0.00074   0.00008   0.00149   0.00000   0.00143   0.00218
   D40       -3.14006   0.00058   0.00307   0.00000   0.00289  -3.13717
   D41        3.14066  -0.00071  -0.00186   0.00000  -0.00160   3.13906
   D42       -0.00014  -0.00022  -0.00028   0.00000  -0.00015  -0.00029
   D43       -0.00346  -0.00161  -0.00692   0.00000  -0.00664  -0.01010
   D44        3.14144  -0.00019  -0.00030   0.00000  -0.00030   3.14114
   D45        3.12924  -0.00531  -0.02470   0.00000  -0.02377   3.10547
   D46       -0.00904  -0.00389  -0.01808   0.00000  -0.01743  -0.02647
[...]
 0.00058618,0.00008948,0.00052715,-0.00019107,-0.00006854,-0.00007993,-
 0.00001430,0.00000572,0.00002982,0.00001578,-0.00001925,0.00000120,-0.
 00000993,0.00004326,0.00004908,-0.00000830,0.00000630,-0.00001215,-0.0
 0271687,0.00144263,-0.00243234,-0.01059810,-0.01371724,0.01797827,-0.0
 7514392,-0.18576671,0.13066662,0.00363321,-0.00165772,0.00161460,0.004
 45807,0.00699662,-0.00452283,0.07694273,0.19185151,-0.00004181,-0.0000
 8920,-0.00011134,-0.00011767,0.00019478,0.00029831,-0.00068086,0.00035
 947,0.00012406,-0.00008089,-0.00001761,0.00003677,0.00005653,-0.000000
 24,-0.00000414,-0.00000920,-0.00001335,-0.00003475,0.00000312,0.000028
 46,-0.00031025,0.00000265,0.00000708,-0.00000542,-0.00165708,-0.002452
 19,-0.00225962,0.00548998,0.00366707,0.00121946,0.07879599,0.13070976,
 -0.15927369,0.00076292,0.00201348,0.00298258,0.00404640,0.00881468,-0.
 00384481,-0.08782310,-0.14244215,0.15956421,-0.00024413,0.00009096,0.0
 0002164,0.00030879,0.00013119,0.00002285,-0.00001429,0.00078705,-0.000
 97433,-0.00023140,0.00020397,0.00009613,0.00016191,0.00006659,0.000198
 92,0.00010555,-0.00017909,-0.00014540,0.00005795,-0.00009765,0.0002900
 7,0.00000587,-0.00000486,0.00000951,0.00341416,0.00080843,0.00136997,-
 0.01482795,-0.05439783,0.04479209,-0.04159072,0.02717508,0.00524979,-0
 .28055644,0.05665667,0.09152192,0.04933579,0.01882493,-0.03080401,-0.0
 0058330,0.00062245,-0.00036661,0.57376334,0.00010061,0.00003749,-0.000
 02565,-0.00018765,-0.00014423,-0.00033111,0.00293358,0.00000483,0.0021
 1941,-0.00036869,-0.00015424,-0.00045999,-0.00006777,0.00008169,-0.000
 01763,-0.00006197,0.00003266,0.00001783,-0.00007284,-0.00003228,0.0000
 0500,-0.00003945,-0.00001898,0.00000001,-0.00457071,-0.00396886,0.0046
 5549,-0.01586516,0.04503020,-0.00966435,0.02813613,-0.02368847,-0.0057
 2103,0.00770901,-0.10698546,0.01637151,-0.02215411,-0.03917880,0.04235
 036,0.00064957,-0.00003925,-0.00053118,-0.07349937,0.60110796,0.000048
 67,-0.00008804,-0.00006211,0.00005426,-0.00005387,0.00039010,-0.000337
 72,0.00037067,-0.00152136,0.00043422,0.00001772,0.00015356,-0.00012292
 ,-0.00010476,-0.00004608,0.00002945,0.00008771,0.00008274,-0.00004216,
 0.00010518,-0.00014664,0.00002117,0.00000649,0.00000178,0.00367647,0.0
 0348991,0.00241979,0.02166644,0.01199056,-0.01037669,0.00544767,-0.005
 75597,-0.00537397,0.11869611,-0.01119328,-0.13140403,-0.00836977,0.019
 06067,0.00745049,-0.00022430,-0.00057703,0.00015718,-0.20807858,-0.212
 43465,0.38349221,-0.00008880,-0.00024652,-0.00027363,0.00009884,0.0001
 9667,0.00023572,-0.00060489,-0.00043073,-0.00049888,0.00019452,0.00008
 974,0.00017962,0.00002578,-0.00004378,-0.00004585,-0.00016304,0.000027
 24,-0.00003886,-0.00019517,-0.00011635,-0.00012196,0.00000858,0.000002
 66,0.00000913,0.00070259,0.00053848,-0.00005977,-0.00134798,0.00140695
 ,-0.00366469,-0.01360376,-0.01450254,0.02382982,-0.02726056,0.02594816
 ,0.00858113,-0.12251478,-0.07477591,0.07270674,-0.00252180,0.00185090,
 0.00305681,-0.14703665,0.11851519,-0.02270616,0.41501017,-0.00021576,0
 .00000480,-0.00002657,0.00026321,0.00010257,0.00003387,-0.00061476,0.0
 0014627,-0.00084229,-0.00015096,0.00013577,0.00009768,0.00014160,0.000
 07919,0.00014121,0.00003091,-0.00014912,-0.00014188,0.00005611,-0.0000
 6276,0.00021358,-0.00000250,-0.00001304,0.00001781,0.00140692,0.001192
 20,-0.00067626,0.00051106,-0.05842124,0.02915657,-0.05386327,0.0402545
 1,0.01507421,0.06991806,0.01062564,-0.04058980,-0.03170078,-0.18959499
 ,0.08755741,0.00242628,0.00134051,0.00038758,0.06750562,-0.26045484,0.
 06795654,-0.08260963,0.52278410,0.00012556,0.00010441,0.00016095,-0.00
 013537,-0.00006530,-0.00019596,0.00055915,0.00020859,0.00097488,-0.000
 08289,-0.00008994,-0.00012743,-0.00007345,-0.00000987,-0.00004664,0.00
 008041,0.00005633,0.00007715,0.00005080,0.00000774,-0.00007942,-0.0000
 0610,0.00000564,-0.00001504,-0.00148631,-0.00148289,-0.00059908,-0.002
 93167,0.02896209,-0.02000067,0.04593607,-0.00683603,-0.00916244,-0.016
 43535,-0.01451467,0.02952944,0.04838961,0.11177251,-0.16435427,0.00277
 623,0.00092205,0.00259637,0.00557657,0.03881644,-0.09543121,-0.1210425
 0,-0.17763236,0.29937621,0.00000428,0.00004812,0.00003038,-0.00007426,
 -0.00002127,-0.00013974,0.00065879,-0.00008471,0.00053695,-0.00012045,
 -0.00001763,-0.00009643,0.00001126,0.00002291,0.00000259,-0.00001200,-
 0.00001455,-0.00001452,-0.00001221,-0.00000122,0.00003180,-0.00000919,
 -0.00000223,-0.00000291,-0.00153470,-0.00077567,0.00090479,-0.00217820
 ,0.00322571,0.00227369,-0.00031251,0.00051921,-0.00012785,-0.00845434,
 -0.01912298,0.01836380,-0.00028145,0.00281049,0.00113201,0.00002688,-0
 .00006745,-0.00004518,-0.09806186,-0.07840785,0.07723792,0.00840409,0.
 01375362,-0.00975596,0.10190700,-0.00000446,0.00002106,0.00000897,-0.0
 0000152,-0.00000400,0.00003924,-0.00019348,0.00001323,-0.00018191,0.00
 003145,-0.00002188,0.00005250,0.00000212,-0.00002254,-0.00001459,-0.00
 000620,0.00000355,-0.00000212,-0.00001146,-0.00001023,0.00000326,0.000
 00430,0.00000328,-0.00000094,0.00066234,0.00041497,-0.00038853,0.00195
 770,0.00130915,0.00092074,0.00071743,0.00003549,-0.00062689,0.00469441
 ,0.00725438,-0.00384081,0.00343186,-0.00181468,0.00154553,-0.00005454,
 -0.00000425,-0.00000498,-0.07794256,-0.19164460,0.12929247,-0.01007376
 ,-0.01448551,0.01652618,0.07820284,0.19932048,0.00001956,0.00002054,0.
 00001407,-0.00002476,-0.00001599,0.00001440,-0.00023255,0.00000208,-0.
 00016156,0.00009985,0.00002282,0.00004751,-0.00002111,-0.00004194,-0.0
 0003058,-0.00000671,0.00002273,0.00001863,-0.00001151,-0.00000616,0.00
 000436,0.00000542,0.00000293,-0.00000063,0.00041624,0.00029780,-0.0001
 5840,0.00315034,0.00059287,0.00291648,-0.00004831,-0.00059274,0.000058
 23,0.00494805,0.00957822,-0.00305520,0.00062169,0.00174753,0.00323301,
 -0.00003036,-0.00001112,-0.00005392,0.07734910,0.12903182,-0.15592620,
 0.00338847,0.00341656,0.00094579,-0.08721923,-0.14140579,0.15457887,0.
 00062907,-0.00052802,-0.00009575,-0.00212639,0.00143444,-0.00071565,0.
 00313501,0.00972511,0.00864133,-0.03294921,-0.01045134,-0.01548418,-0.
 00219810,-0.01770520,-0.02005756,-0.00158684,0.00186382,-0.00072657,0.
 00014764,0.00036574,0.00041048,0.00057128,-0.00123591,0.00031684,-0.00
 046158,0.00320526,0.00414578,-0.00006940,0.00049095,0.00017098,-0.0000
 5172,-0.00002041,-0.00005843,0.00006429,-0.00046613,0.00006393,0.00000
 920,-0.00000851,-0.00000355,-0.00000868,0.00002607,0.00001798,0.000013
 60,0.00012303,-0.00001692,-0.00001463,-0.00000236,-0.00003894,0.000027
 44,0.00000618,-0.00001678,0.03573392,-0.00057799,-0.00011429,0.0000939
 4,0.00484545,0.00093558,0.00048182,-0.00674353,-0.01702811,-0.02409888
 ,-0.00700716,-0.07565833,-0.05639372,-0.00302898,-0.00852000,-0.013509
 87,0.00067526,0.00348831,-0.00043221,-0.00053197,-0.00049233,-0.000824
 02,-0.00015810,-0.00090284,0.00174496,0.00097947,-0.00184798,0.0001052
 5,-0.00103173,0.00012504,0.00035923,0.00015032,0.00007982,0.00003860,0
 .00017423,-0.00061560,0.00015230,-0.00007403,0.00005244,-0.00001134,-0
 .00004825,0.00001494,-0.00007521,-0.00013446,0.00021542,-0.00002299,0.
 00000390,-0.00003468,-0.00000059,0.00002781,-0.00000977,-0.00001618,0.
 01329737,0.10092451,0.00003829,-0.00000308,-0.00041062,0.00252577,-0.0
 0157824,0.00298700,-0.00766247,-0.01667282,-0.01552008,-0.01184179,-0.
 05715474,-0.08035172,-0.00603860,-0.01975598,-0.01818418,-0.00207021,0
 .00015748,0.00358237,-0.00047871,-0.00035814,-0.00060645,0.00137694,0.
 00137993,-0.00092449,0.00166326,0.00114259,0.00062919,-0.00043966,0.00
 061940,0.00036203,0.00002048,0.00013171,0.00007544,0.00022334,-0.00033
 520,0.00002994,-0.00005399,0.00006776,-0.00005562,-0.00003195,0.000010
 17,-0.00005700,-0.00008155,0.00010391,-0.00002997,-0.00000979,-0.00002
 565,0.00002186,0.00002994,-0.00002800,-0.00001420,0.02349473,0.0930381
 9,0.11002453,-0.00005066,0.00014417,0.00011072,-0.00001540,0.00013745,
 0.00073918,-0.00202995,-0.00160150,0.00034009,-0.00045912,-0.00061934,
 0.00051883,0.00033652,0.00003464,0.00023104,0.00012690,-0.00010814,-0.
 00016587,-0.00003828,0.00001818,-0.00012087,0.00001776,0.00000455,0.00
 002502,0.00154878,-0.00378724,-0.00039763,-0.00098534,0.00283091,0.002
 05881,0.00087432,-0.00015610,0.00161946,-0.05301086,0.04697923,-0.0061
 9735,0.00024403,0.00045369,-0.00068429,-0.00001199,-0.00003841,0.00005
 622,-0.01495548,0.02987699,-0.00482969,-0.00013886,-0.00132875,0.00336
 169,0.00017376,-0.00002717,-0.00177698,-0.00053018,-0.00035004,-0.0001
 5041,0.06990907,-0.00002532,0.00005978,0.00003099,0.00000859,0.0000504
 7,0.00006496,-0.00082567,-0.00145717,0.00104602,-0.00092573,-0.0009209
 7,-0.00034282,0.00012116,0.00025510,0.00021745,-0.00008097,-0.00010561
 ,-0.00018806,0.00020821,0.00000192,0.00019274,-0.00007623,-0.00003371,
 0.00001504,-0.00073794,0.00084928,-0.00076622,0.02053973,-0.02902855,0
 .00424117,-0.00373438,0.00077549,0.00368648,0.04451136,-0.10814312,0.0
 2068390,-0.00002785,-0.00021538,-0.00021852,0.00099911,-0.00081843,0.0
 0001828,0.01311584,-0.01849163,0.00427377,0.00024096,0.00367860,0.0001
 7090,-0.00119429,0.00008053,-0.00081094,0.00027820,0.00011390,-0.00000
 079,-0.07336680,0.15454098,0.00009580,-0.00000124,0.00001930,-0.000064
 55,0.00000825,-0.00010334,-0.00030086,0.00031692,-0.00016392,0.0003291
 3,0.00014845,-0.00013376,0.00001564,-0.00010991,-0.00002111,0.00001136
 ,0.00004504,0.00001401,-0.00001245,-0.00000578,-0.00007254,-0.00000157
 ,-0.00001359,-0.00000156,-0.00167738,0.00109147,-0.00155427,-0.0078373
 7,0.01682693,0.00070681,0.00359541,0.00142322,0.00017011,-0.00416864,0
 .01805556,-0.02832827,-0.00061450,-0.00044473,0.00011320,-0.00044524,0
 .00051417,0.00004364,0.00398109,-0.00551329,0.00473204,0.00243906,0.00
 131435,0.00218677,-0.00111275,-0.00157747,-0.00126991,0.00049143,0.000
 21467,-0.00038195,0.00540640,-0.03228774,0.02417199,-0.02978195,-0.001
 53808,-0.01697438,0.00012005,0.00379113,0.00236671,0.00118194,0.000127
 35,0.00124617,0.00297884,-0.00015859,-0.00030156,-0.02139159,-0.000946
 00,-0.01280790,-0.11133494,0.00061784,-0.04105207,-0.00082573,-0.00034
 876,-0.00090231,0.00019513,-0.00004613,0.00118075,-0.00329885,0.000534
 01,-0.00102852,0.00150142,-0.00068689,-0.00063967,-0.00025273,0.000031
 09,0.00004634,-0.00022787,0.00026496,0.00012589,0.00009925,-0.00024643
 ,0.00006425,0.00004561,-0.00005381,0.00003846,0.00001389,-0.00007611,0
 .00004614,0.00017025,0.00004954,-0.00011935,-0.00003050,0.00000129,-0.
 00000243,-0.00035764,-0.00033809,-0.00054265,-0.00005413,-0.00004594,-
 0.00000323,0.16515288,0.01288700,0.00172000,0.00426544,0.00126779,-0.0
 0011237,-0.00266977,-0.00059631,0.00025339,0.00042726,0.00143917,0.000
 73596,-0.00270816,-0.01546070,0.00186284,-0.00970948,-0.00161063,-0.02
 562429,-0.00621567,0.00044086,0.00032883,0.00017668,-0.00136178,-0.000
 74950,0.00129295,0.00000689,-0.00011286,0.00017753,-0.00003404,-0.0000
 1639,0.00003456,0.00002544,0.00002822,0.00000537,0.00002556,-0.0000380
 3,0.00004626,-0.00001363,0.00001146,0.00000879,-0.00000855,0.00000099,
 -0.00001495,-0.00000003,-0.00000058,-0.00000701,-0.00000985,0.00000751
 ,-0.00000082,-0.00000031,-0.00000271,-0.00000338,-0.00021606,-0.000112
 90,-0.00030678,-0.00000286,0.00001912,-0.00000454,-0.00268359,0.024786
 79,-0.00162413,-0.00240541,0.00006702,-0.00039112,-0.00162084,0.001148
 00,0.00027722,0.00083566,0.00066817,0.00118114,-0.00339358,0.00123892,
 -0.02768413,-0.00308875,-0.01144816,-0.04359104,-0.00513655,-0.0456516
 6,-0.00005229,-0.00016477,0.00014809,-0.00005056,0.00186676,-0.0007610
 7,-0.00156067,0.00045905,-0.00045057,0.00069872,-0.00024276,-0.0003855
 7,-0.00011719,0.00002141,0.00003932,-0.00011460,0.00006212,0.00005036,
 0.00002660,-0.00010647,0.00003321,0.00001826,-0.00002625,0.00000761,0.
 00001707,-0.00002233,0.00002069,0.00006599,0.00002939,-0.00005401,-0.0
 0001235,0.00000049,-0.00000087,-0.00044933,-0.00032470,-0.00042559,-0.
 00002358,-0.00000302,-0.00000668,0.06866889,0.01450520,0.05589029,0.00
 011254,0.00022287,0.00027747,-0.00032678,-0.00009312,-0.00026647,0.001
 35780,-0.00014852,0.00079546,-0.00023233,-0.00015389,-0.00020747,-0.00
 001396,0.00005434,0.00005235,0.00014023,-0.00003490,0.00002675,0.00008
 713,0.00011834,0.00010723,-0.00001501,0.00000318,-0.00001883,-0.002801
 67,0.00067805,0.00042005,0.00053750,-0.00112322,-0.00033462,0.00220277
 ,-0.00231997,0.00187181,0.00341442,0.00233627,-0.00069972,-0.02281936,
 0.00586283,0.01193624,-0.00075263,0.00055766,0.00023851,-0.02975778,0.
 00732818,0.01585317,-0.10906999,0.01345408,0.04347725,-0.00018422,-0.0
 0140816,-0.00066190,-0.00001639,0.00001741,0.00003781,-0.00068527,0.00
 059130,0.00009208,-0.00017835,0.00000773,-0.00008013,0.15917013,-0.000
 00103,-0.00003256,-0.00003484,0.00003011,0.00000577,0.00000904,-0.0001
 7205,-0.00000162,-0.00005373,0.00002220,-0.00000707,-0.00000110,-0.000
 01218,-0.00000014,-0.00001083,-0.00002002,0.00001275,0.00000659,-0.000
 00050,-0.00001708,-0.00000703,-0.00000093,-0.00000126,0.00000224,0.000
 17643,0.00001647,-0.00028033,0.00009186,0.00067102,-0.00057384,0.00087
 093,-0.00138654,0.00215521,0.00050553,-0.00098603,0.00257348,-0.010955
 04,0.00215963,0.00723434,-0.00042889,0.00031658,0.00019281,0.02389640,
 -0.00247586,-0.00979653,0.01617064,-0.03044457,-0.00408134,0.00017756,
 0.00031748,-0.00178309,0.00000908,0.00001476,0.00000283,0.00047096,-0.
 00031712,-0.00007120,0.00001809,0.00000074,0.00000850,-0.02509650,0.03
 530327,-0.00005871,-0.00012077,-0.00015287,0.00016428,0.00005488,0.000
 15712,-0.00081314,0.00009434,-0.00046012,0.00011835,0.00007510,0.00011
 003,0.00001261,-0.00002388,-0.00002333,-0.00006872,0.00001779,-0.00001
 378,-0.00003393,-0.00005519,-0.00006777,0.00000815,-0.00000096,0.00000
 931,0.00129770,-0.00064727,-0.00037636,-0.00046774,-0.00003336,0.00013
 526,-0.00011810,0.00407064,0.00094026,0.00023561,0.00149167,0.00298911
 ,0.02190397,-0.00251457,-0.00749934,0.00082204,-0.00037663,-0.00001297
 ,0.00640829,-0.00015508,0.00106734,0.04173533,-0.00253273,-0.04435645,
 -0.00150149,-0.00084263,-0.00129236,0.00000736,-0.00001277,-0.00002172
 ,0.00016592,-0.00015979,0.00004892,0.00009335,-0.00000416,0.00004244,-
 0.07267236,-0.00009069,0.05230426,0.00004142,0.00012588,0.00015716,-0.
 00014417,-0.00009264,-0.00015301,0.00095546,0.00036233,0.00064932,-0.0
 0022413,-0.00006429,-0.00015395,-0.00001278,0.00003494,0.00006206,0.00
 007445,-0.00002655,0.00000069,0.00003350,0.00007048,0.00004293,-0.0000
 1293,-0.00000279,-0.00001347,-0.00201588,0.00076565,-0.00026333,0.0004
 0284,-0.00232973,0.00353272,-0.01629856,0.03103158,-0.00559155,0.00050
 467,0.00048255,-0.00104333,-0.05373370,0.04624710,-0.00802082,0.000244
 29,0.00022125,-0.00175782,0.00067838,0.00000430,0.00152101,-0.00009453
 ,0.00096165,0.00179838,0.00005653,0.00000897,0.00005298,-0.00001110,-0
 .00000202,-0.00000016,-0.00026908,0.00045182,-0.00022421,-0.00009317,0
 .00000177,-0.00004154,-0.00011846,-0.00575728,0.00273515,0.07006003,-0
 .00006310,-0.00021474,-0.00026305,0.00020679,0.00012070,0.00021689,-0.
 00130090,-0.00030793,-0.00080281,0.00025155,0.00007582,0.00015588,-0.0
 0000067,-0.00003459,-0.00007244,-0.00011754,0.00004772,0.00000408,-0.0
 0006491,-0.00014667,-0.00007709,0.00001099,-0.00000219,0.00002174,0.00
 221132,-0.00057613,0.00016636,-0.00037711,0.00430483,0.00019125,0.0145
 0524,-0.01944291,0.00559426,-0.00012594,-0.00014062,0.00015886,0.04366
 233,-0.10388546,0.02190943,-0.00135220,0.00000033,-0.00075352,-0.00362
 981,0.00075465,0.00338316,0.01771688,-0.02674139,0.00724337,0.00093773
 ,-0.00074842,-0.00004084,0.00002264,0.00002672,0.00000831,0.00046747,-
 0.00094273,0.00006553,0.00014207,-0.00000009,0.00006360,-0.00071525,-0
 .00316887,0.00169268,-0.07242226,0.15089474,0.00002982,0.00003852,0.00
 004472,-0.00005194,-0.00003089,-0.00000991,0.00020968,0.00003528,0.000
 04328,0.00000350,-0.00000200,-0.00002730,-0.00000659,-0.00000618,0.000
 00240,0.00002317,0.00000536,0.00001148,0.00002375,0.00002535,0.0000055
 7,0.00000046,-0.00000042,-0.00000164,-0.00017708,-0.00028551,0.0001271
 0,0.00250817,0.00115862,0.00211797,0.00364323,-0.00399926,0.00491341,-
 0.00037295,-0.00043233,-0.00007273,-0.00650595,0.02055500,-0.03019475,
 -0.00091165,-0.00169826,-0.00108043,0.00356902,0.00138990,0.00032643,-
 0.00787352,0.01704896,-0.00137242,-0.00049203,0.00053173,0.00014215,-0
 .00000679,-0.00000318,0.00000372,-0.00027270,0.00010842,-0.00016175,-0
 .00002793,-0.00000005,-0.00001122,-0.00009289,0.00457862,-0.00360979,0
 .00678894,-0.03899612,0.02882283,-0.03190661,-0.00807910,-0.01275892,-
 0.00233624,-0.01681478,-0.02049894,-0.00199472,0.00236632,-0.00050743,
 0.00090684,-0.00060437,-0.00009034,-0.00217661,0.00133050,-0.00101475,
 0.00195583,0.01067001,0.01008253,0.00054105,-0.00147863,0.00000646,0.0
 0032585,0.00033437,0.00040298,-0.00048414,-0.00078516,-0.00072797,0.00
 045446,0.00002262,-0.00016166,-0.00005998,0.00001759,0.00003855,-0.000
 05951,0.00007907,0.00000032,0.00003747,-0.00007705,0.00001704,0.000010
 13,-0.00000965,0.00001464,0.00000077,-0.00000488,-0.00000446,0.0000406
 3,0.00001009,-0.00002384,-0.00000415,0.00000240,0.00000094,0.00005042,
 -0.00014486,-0.00000862,0.00000348,-0.00002517,0.00000533,-0.00363181,
 0.00589613,0.00483877,-0.00005033,0.00000463,0.00002610,-0.00002309,0.
 00003466,-0.00000771,0.03840027,-0.00576350,-0.07153067,-0.05373647,-0
 .00296674,-0.00849821,-0.01474970,0.00047309,0.00397164,-0.00011851,0.
 00015720,-0.00020382,0.00014060,0.00441376,0.00097930,-0.00006451,-0.0
 0395632,-0.01590632,-0.02191534,0.00005228,-0.00095810,0.00171572,-0.0
 0049622,-0.00037170,-0.00082097,-0.00122748,-0.00042660,-0.00047285,0.
 00101293,-0.00008138,-0.00039955,-0.00013802,0.00000340,0.00006836,-0.
 00010318,0.00001765,0.00003342,0.00004783,-0.00020174,0.00006804,0.000
 01998,-0.00004231,0.00000113,0.00000050,0.00001317,-0.00000072,0.00010
 071,0.00005047,-0.00008243,-0.00001584,-0.00000500,-0.00000775,-0.0002
 1395,-0.00065461,-0.00044284,-0.00003192,0.00004924,0.00000492,0.00159
 108,-0.00298614,-0.00131672,-0.00013872,0.00002028,0.00007338,-0.00007
 271,0.00012722,-0.00002157,0.00725524,0.09663422,-0.01054031,-0.054725
 96,-0.08272587,-0.00655744,-0.02123336,-0.01977683,-0.00224696,0.00091
 906,0.00373774,0.00077111,0.00003112,-0.00035042,0.00220173,-0.0015313
 2,0.00278863,-0.00484471,-0.01555860,-0.01419969,0.00150743,0.00101269
 ,-0.00083939,-0.00044749,-0.00042826,-0.00049471,-0.00159604,-0.000655
 77,-0.00069918,0.00133410,-0.00014857,-0.00054683,-0.00022987,0.000049
 35,0.00006787,-0.00010042,0.00006347,0.00007863,0.00009480,-0.00020317
 ,0.00003745,0.00003161,-0.00004563,0.00001816,-0.00002356,0.00001462,0
 .00002392,0.00010780,0.00002183,-0.00007439,-0.00002344,-0.00000646,-0
 .00000966,-0.00009039,-0.00050328,-0.00073247,-0.00001402,0.00002777,-
 0.00000773,0.00052505,0.00070477,-0.00015872,-0.00015178,0.00002086,0.
 00008280,-0.00007815,0.00013049,-0.00001912,0.02037098,0.09204436,0.11
 379981\\-0.00000118,-0.00000040,-0.00000614,0.00000410,-0.00000001,-0.
 00000187,-0.00000067,-0.00000835,-0.00000321,-0.00001241,-0.00000286,-
 0.00000044,-0.00000157,-0.00000166,-0.00000508,0.00000268,-0.00000863,
 -0.00000448,0.00000342,0.00000191,-0.00000495,-0.00000333,-0.00000673,
 -0.00000532,-0.00000473,-0.00000811,0.00000336,-0.00000041,0.00000902,
 -0.00000394,0.00000553,-0.00000190,0.00000265,-0.00001112,-0.00000161,
 0.00001529,-0.00000286,-0.00000050,0.00000454,-0.00000200,-0.00000030,
 0.00000037,0.00000616,0.00000192,0.00000344,0.00000087,0.00001073,0.00
 000539,0.00000052,0.00000647,0.00000918,-0.00000056,-0.00000767,-0.000
 00086,0.00000196,0.00000765,0.00000078,0.00000243,-0.00000377,-0.00001
 065,0.00000339,0.00000831,0.00000870,0.00000252,0.00000444,0.00000211,
 0.00000727,0.00000206,-0.00000886\\\@


 OF ALL THE WONDERS OF THE UNIVERSE, THE GREATEST IS MAN.

                                    -- ARISTOTLE
 Job cpu time:       0 days  0 hours 38 minutes  1.9 seconds.
 File lengths (MBytes):  RWF=    535 Int=      0 D2E=      0 Chk=     12 Scr=      1
 Normal termination of Gaussian 09 at Tue Jan 17 18:43:14 2017.
